Title: * C:\Users\Avi\Desktop\IEEGIT\TBioCAS2021\FIG5\6OZ\pure\OZ_6_pure_curves.asc
Date: Tue Apr 27 08:50:06 2021
Plotname: Operating Point
Flags: real
No. Variables: 1521
No. Points:            1
Offset:   0.0000000000000000e+000
Command: Linear Technology Corporation LTspice XVII
Backannotation: u1 1 2 3 4 5
Backannotation: u2 1 2 3 4 5
Backannotation: u3 1 2 3 4 5
Backannotation: u4 1 2 3 4 5
Backannotation: u5 1 2 3 4 5
Backannotation: u6 1 2 3 4 5
Backannotation: u7 1 2 3 4 5
Backannotation: u8 1 2 3 4 5
Backannotation: u121 1 2 3 4 5
Backannotation: u122 1 2 3 4 5
Backannotation: u123 1 2 3 4 5
Backannotation: u9 1 2 3 4 5
Backannotation: u10 1 2 3 4 5
Backannotation: u11 1 2 3 4 5
Backannotation: u12 1 2 3 4 5
Backannotation: u13 1 2 3 4 5
Backannotation: u14 1 2 3 4 5
Backannotation: u15 1 2 3 4 5
Backannotation: u16 1 2 3 4 5
Backannotation: u17 1 2 3 4 5
Backannotation: u18 1 2 3 4 5
Backannotation: u19 1 2 3 4 5
Backannotation: u20 1 2 3 4 5
Backannotation: u21 1 2 3 4 5
Backannotation: u22 1 2 3 4 5
Backannotation: u23 1 2 3 4 5
Backannotation: u24 1 2 3 4 5
Backannotation: u25 1 2 3 4 5
Backannotation: u26 1 2 3 4 5
Backannotation: u27 1 2 3 4 5
Backannotation: u28 1 2 3 4 5
Backannotation: u29 1 2 3 4 5
Backannotation: u30 1 2 3 4 5
Backannotation: u31 1 2 3 4 5
Backannotation: u32 1 2 3 4 5
Backannotation: u33 1 2 3 4 5
Backannotation: u34 1 2 3 4 5
Backannotation: u35 1 2 3 4 5
Backannotation: u36 1 2 3 4 5
Backannotation: u37 1 2 3 4 5
Backannotation: u38 1 2 3 4 5
Backannotation: u39 1 2 3 4 5
Backannotation: u40 1 2 3 4 5
Backannotation: u41 1 2 3 4 5
Backannotation: u42 1 2 3 4 5
Backannotation: u43 1 2 3 4 5
Backannotation: u44 1 2 3 4 5
Backannotation: u45 1 2 3 4 5
Backannotation: u46 1 2 3 4 5
Backannotation: u47 1 2 3 4 5
Backannotation: u48 1 2 3 4 5
Backannotation: u49 1 2 3 4 5
Backannotation: u50 1 2 3 4 5
Backannotation: u65 1 2 3 4 5
Backannotation: u66 1 2 3 4 5
Backannotation: u67 1 2 3 4 5
Backannotation: u68 1 2 3 4 5
Backannotation: u69 1 2 3 4 5
Backannotation: u70 1 2 3 4 5
Backannotation: u71 1 2 3 4 5
Backannotation: u72 1 2 3 4 5
Backannotation: u73 1 2 3 4 5
Backannotation: u74 1 2 3 4 5
Backannotation: u75 1 2 3 4 5
Backannotation: u76 1 2 3 4 5
Backannotation: u77 1 2 3 4 5
Backannotation: u78 1 2 3 4 5
Backannotation: u79 1 2 3 4 5
Backannotation: u80 1 2 3 4 5
Backannotation: u81 1 2 3 4 5
Backannotation: u82 1 2 3 4 5
Backannotation: u83 1 2 3 4 5
Backannotation: u84 1 2 3 4 5
Backannotation: u85 1 2 3 4 5
Backannotation: u86 1 2 3 4 5
Backannotation: u87 1 2 3 4 5
Backannotation: u88 1 2 3 4 5
Backannotation: u89 1 2 3 4 5
Backannotation: u90 1 2 3 4 5
Backannotation: u91 1 2 3 4 5
Backannotation: u92 1 2 3 4 5
Backannotation: u93 1 2 3 4 5
Backannotation: u94 1 2 3 4 5
Backannotation: u95 1 2 3 4 5
Backannotation: u96 1 2 3 4 5
Backannotation: u97 1 2 3 4 5
Backannotation: u98 1 2 3 4 5
Backannotation: u99 1 2 3 4 5
Backannotation: u100 1 2 3 4 5
Backannotation: u101 1 2 3 4 5
Backannotation: u102 1 2 3 4 5
Backannotation: u103 1 2 3 4 5
Backannotation: u104 1 2 3 4 5
Backannotation: u105 1 2 3 4 5
Backannotation: u106 1 2 3 4 5
Backannotation: u124 1 2 3 4 5
Backannotation: u125 1 2 3 4 5
Backannotation: u126 1 2 3 4 5
Variables:
	0	V(vint)	voltage
	1	V(vdd)	voltage
	2	V(vss-)	voltage
	3	V(vss+)	voltage
	4	V(voffset)	voltage
	5	V(vref)	voltage
	6	V(vw)	voltage
	7	V(vgnd)	voltage
	8	V(n017)	voltage
	9	V(n018)	voltage
	10	V(n023)	voltage
	11	V(n019)	voltage
	12	V(n020)	voltage
	13	V(n021)	voltage
	14	V(n022)	voltage
	15	V(n025)	voltage
	16	V(n026)	voltage
	17	V(n027)	voltage
	18	V(n028)	voltage
	19	V(vin)	voltage
	20	V(vpos)	voltage
	21	V(vneg)	voltage
	22	V(vout)	voltage
	23	V(n039)	voltage
	24	V(n024)	voltage
	25	V(n037)	voltage
	26	V(n038)	voltage
	27	V(t1)	voltage
	28	V(t2)	voltage
	29	V(t3)	voltage
	30	V(t5)	voltage
	31	V(t6)	voltage
	32	V(t7)	voltage
	33	V(n105)	voltage
	34	V(wc)	voltage
	35	V(n080)	voltage
	36	V(n088)	voltage
	37	V(n089)	voltage
	38	V(n059)	voltage
	39	V(n098)	voltage
	40	V(n079)	voltage
	41	V(n048)	voltage
	42	V(n052)	voltage
	43	V(n077)	voltage
	44	V(n078)	voltage
	45	V(errorsig)	voltage
	46	V(n056)	voltage
	47	V(n054)	voltage
	48	V(n053)	voltage
	49	V(n047)	voltage
	50	V(n096)	voltage
	51	V(n050)	voltage
	52	V(n097)	voltage
	53	V(n057)	voltage
	54	V(n051)	voltage
	55	V(n060)	voltage
	56	V(n090)	voltage
	57	V(n058)	voltage
	58	V(n099)	voltage
	59	V(n065)	voltage
	60	V(n062)	voltage
	61	V(n061)	voltage
	62	V(n109)	voltage
	63	V(n063)	voltage
	64	V(n110)	voltage
	65	V(n066)	voltage
	66	V(n064)	voltage
	67	V(n069)	voltage
	68	V(n100)	voltage
	69	V(n070)	voltage
	70	V(n071)	voltage
	71	V(vout1)	voltage
	72	V(n177)	voltage
	73	V(n152)	voltage
	74	V(n160)	voltage
	75	V(n161)	voltage
	76	V(n131)	voltage
	77	V(n170)	voltage
	78	V(n151)	voltage
	79	V(n120)	voltage
	80	V(n124)	voltage
	81	V(n149)	voltage
	82	V(n150)	voltage
	83	V(n128)	voltage
	84	V(n126)	voltage
	85	V(n125)	voltage
	86	V(n119)	voltage
	87	V(n168)	voltage
	88	V(n122)	voltage
	89	V(n169)	voltage
	90	V(n129)	voltage
	91	V(n123)	voltage
	92	V(n132)	voltage
	93	V(n162)	voltage
	94	V(n130)	voltage
	95	V(n171)	voltage
	96	V(n137)	voltage
	97	V(n134)	voltage
	98	V(n133)	voltage
	99	V(n181)	voltage
	100	V(n135)	voltage
	101	V(n182)	voltage
	102	V(n138)	voltage
	103	V(n136)	voltage
	104	V(n141)	voltage
	105	V(n172)	voltage
	106	V(n142)	voltage
	107	V(n143)	voltage
	108	V(vout2)	voltage
	109	V(n249)	voltage
	110	V(n224)	voltage
	111	V(n232)	voltage
	112	V(n233)	voltage
	113	V(n203)	voltage
	114	V(n242)	voltage
	115	V(n223)	voltage
	116	V(n192)	voltage
	117	V(n196)	voltage
	118	V(n221)	voltage
	119	V(n222)	voltage
	120	V(n200)	voltage
	121	V(n198)	voltage
	122	V(n197)	voltage
	123	V(n191)	voltage
	124	V(n240)	voltage
	125	V(n194)	voltage
	126	V(n241)	voltage
	127	V(n201)	voltage
	128	V(n195)	voltage
	129	V(n204)	voltage
	130	V(n234)	voltage
	131	V(n202)	voltage
	132	V(n243)	voltage
	133	V(n209)	voltage
	134	V(n206)	voltage
	135	V(n205)	voltage
	136	V(n253)	voltage
	137	V(n207)	voltage
	138	V(n254)	voltage
	139	V(n210)	voltage
	140	V(n208)	voltage
	141	V(n213)	voltage
	142	V(n244)	voltage
	143	V(n214)	voltage
	144	V(n215)	voltage
	145	V(vout3)	voltage
	146	V(n116)	voltage
	147	V(n104)	voltage
	148	V(n106)	voltage
	149	V(n107)	voltage
	150	V(n082)	voltage
	151	V(n113)	voltage
	152	V(n103)	voltage
	153	V(n055)	voltage
	154	V(n072)	voltage
	155	V(n101)	voltage
	156	V(n102)	voltage
	157	V(n075)	voltage
	158	V(n074)	voltage
	159	V(n073)	voltage
	160	V(n049)	voltage
	161	V(n111)	voltage
	162	V(n067)	voltage
	163	V(n112)	voltage
	164	V(n076)	voltage
	165	V(n068)	voltage
	166	V(n083)	voltage
	167	V(n108)	voltage
	168	V(n081)	voltage
	169	V(n114)	voltage
	170	V(n091)	voltage
	171	V(n085)	voltage
	172	V(n084)	voltage
	173	V(n117)	voltage
	174	V(n086)	voltage
	175	V(n118)	voltage
	176	V(n092)	voltage
	177	V(n087)	voltage
	178	V(n093)	voltage
	179	V(n115)	voltage
	180	V(n094)	voltage
	181	V(n095)	voltage
	182	V(vout5)	voltage
	183	V(n188)	voltage
	184	V(n176)	voltage
	185	V(n178)	voltage
	186	V(n179)	voltage
	187	V(n154)	voltage
	188	V(n185)	voltage
	189	V(n175)	voltage
	190	V(n127)	voltage
	191	V(n144)	voltage
	192	V(n173)	voltage
	193	V(n174)	voltage
	194	V(n147)	voltage
	195	V(n146)	voltage
	196	V(n145)	voltage
	197	V(n121)	voltage
	198	V(n183)	voltage
	199	V(n139)	voltage
	200	V(n184)	voltage
	201	V(n148)	voltage
	202	V(n140)	voltage
	203	V(n155)	voltage
	204	V(n180)	voltage
	205	V(n153)	voltage
	206	V(n186)	voltage
	207	V(n163)	voltage
	208	V(n157)	voltage
	209	V(n156)	voltage
	210	V(n189)	voltage
	211	V(n158)	voltage
	212	V(n190)	voltage
	213	V(n164)	voltage
	214	V(n159)	voltage
	215	V(n165)	voltage
	216	V(n187)	voltage
	217	V(n166)	voltage
	218	V(n167)	voltage
	219	V(vout6)	voltage
	220	V(n260)	voltage
	221	V(n248)	voltage
	222	V(n250)	voltage
	223	V(n251)	voltage
	224	V(n226)	voltage
	225	V(n257)	voltage
	226	V(n247)	voltage
	227	V(n199)	voltage
	228	V(n216)	voltage
	229	V(n245)	voltage
	230	V(n246)	voltage
	231	V(n219)	voltage
	232	V(n218)	voltage
	233	V(n217)	voltage
	234	V(n193)	voltage
	235	V(n255)	voltage
	236	V(n211)	voltage
	237	V(n256)	voltage
	238	V(n220)	voltage
	239	V(n212)	voltage
	240	V(n227)	voltage
	241	V(n252)	voltage
	242	V(n225)	voltage
	243	V(n258)	voltage
	244	V(n235)	voltage
	245	V(n229)	voltage
	246	V(n228)	voltage
	247	V(n261)	voltage
	248	V(n230)	voltage
	249	V(n262)	voltage
	250	V(n236)	voltage
	251	V(n231)	voltage
	252	V(n237)	voltage
	253	V(n259)	voltage
	254	V(n238)	voltage
	255	V(n239)	voltage
	256	V(vout7)	voltage
	257	V(n041)	voltage
	258	V(n045)	voltage
	259	V(n042)	voltage
	260	V(n044)	voltage
	261	V(n043)	voltage
	262	V(n046)	voltage
	263	V(n040)	voltage
	264	V(n006)	voltage
	265	V(n004)	voltage
	266	V(spikes1)	voltage
	267	V(n002)	voltage
	268	V(n008)	voltage
	269	V(v0)	voltage
	270	V(vlk)	voltage
	271	V(n014)	voltage
	272	V(n012)	voltage
	273	V(spikes2)	voltage
	274	V(n010)	voltage
	275	V(n016)	voltage
	276	V(v1)	voltage
	277	V(n034)	voltage
	278	V(n032)	voltage
	279	V(spikes3)	voltage
	280	V(n030)	voltage
	281	V(n036)	voltage
	282	V(v2)	voltage
	283	V(n005)	voltage
	284	V(n003)	voltage
	285	V(spikes5)	voltage
	286	V(n001)	voltage
	287	V(n007)	voltage
	288	V(n013)	voltage
	289	V(n011)	voltage
	290	V(spikes6)	voltage
	291	V(n009)	voltage
	292	V(n015)	voltage
	293	V(n033)	voltage
	294	V(n031)	voltage
	295	V(spikes7)	voltage
	296	V(n029)	voltage
	297	V(n035)	voltage
	298	V(v3)	voltage
	299	V(v4)	voltage
	300	I(B1)	device_current
	301	Id(Mpnot14)	device_current
	302	Ig(Mpnot14)	device_current
	303	Ib(Mpnot14)	device_current
	304	Is(Mpnot14)	device_current
	305	Id(Min7)	device_current
	306	Ig(Min7)	device_current
	307	Ib(Min7)	device_current
	308	Is(Min7)	device_current
	309	Id(Mina7)	device_current
	310	Ig(Mina7)	device_current
	311	Ib(Mina7)	device_current
	312	Is(Mina7)	device_current
	313	Id(Mpnot13)	device_current
	314	Ig(Mpnot13)	device_current
	315	Ib(Mpnot13)	device_current
	316	Is(Mpnot13)	device_current
	317	Id(Mw7)	device_current
	318	Ig(Mw7)	device_current
	319	Ib(Mw7)	device_current
	320	Is(Mw7)	device_current
	321	Id(Mpnot12)	device_current
	322	Ig(Mpnot12)	device_current
	323	Ib(Mpnot12)	device_current
	324	Is(Mpnot12)	device_current
	325	Id(Min6)	device_current
	326	Ig(Min6)	device_current
	327	Ib(Min6)	device_current
	328	Is(Min6)	device_current
	329	Id(Mina6)	device_current
	330	Ig(Mina6)	device_current
	331	Ib(Mina6)	device_current
	332	Is(Mina6)	device_current
	333	Id(Mpnot11)	device_current
	334	Ig(Mpnot11)	device_current
	335	Ib(Mpnot11)	device_current
	336	Is(Mpnot11)	device_current
	337	Id(Mw6)	device_current
	338	Ig(Mw6)	device_current
	339	Ib(Mw6)	device_current
	340	Is(Mw6)	device_current
	341	Id(Mpnot10)	device_current
	342	Ig(Mpnot10)	device_current
	343	Ib(Mpnot10)	device_current
	344	Is(Mpnot10)	device_current
	345	Id(Min5)	device_current
	346	Ig(Min5)	device_current
	347	Ib(Min5)	device_current
	348	Is(Min5)	device_current
	349	Id(Mina5)	device_current
	350	Ig(Mina5)	device_current
	351	Ib(Mina5)	device_current
	352	Is(Mina5)	device_current
	353	Id(Mpnot9)	device_current
	354	Ig(Mpnot9)	device_current
	355	Ib(Mpnot9)	device_current
	356	Is(Mpnot9)	device_current
	357	Id(Mw5)	device_current
	358	Ig(Mw5)	device_current
	359	Ib(Mw5)	device_current
	360	Is(Mw5)	device_current
	361	Id(Mpnot6)	device_current
	362	Ig(Mpnot6)	device_current
	363	Ib(Mpnot6)	device_current
	364	Is(Mpnot6)	device_current
	365	Id(Min3)	device_current
	366	Ig(Min3)	device_current
	367	Ib(Min3)	device_current
	368	Is(Min3)	device_current
	369	Id(Mina3)	device_current
	370	Ig(Mina3)	device_current
	371	Ib(Mina3)	device_current
	372	Is(Mina3)	device_current
	373	Id(Mpnot5)	device_current
	374	Ig(Mpnot5)	device_current
	375	Ib(Mpnot5)	device_current
	376	Is(Mpnot5)	device_current
	377	Id(Mw3)	device_current
	378	Ig(Mw3)	device_current
	379	Ib(Mw3)	device_current
	380	Is(Mw3)	device_current
	381	Id(Mpnot4)	device_current
	382	Ig(Mpnot4)	device_current
	383	Ib(Mpnot4)	device_current
	384	Is(Mpnot4)	device_current
	385	Id(Min2)	device_current
	386	Ig(Min2)	device_current
	387	Ib(Min2)	device_current
	388	Is(Min2)	device_current
	389	Id(Mina2)	device_current
	390	Ig(Mina2)	device_current
	391	Ib(Mina2)	device_current
	392	Is(Mina2)	device_current
	393	Id(Mpnot3)	device_current
	394	Ig(Mpnot3)	device_current
	395	Ib(Mpnot3)	device_current
	396	Is(Mpnot3)	device_current
	397	Id(Mw2)	device_current
	398	Ig(Mw2)	device_current
	399	Ib(Mw2)	device_current
	400	Is(Mw2)	device_current
	401	Id(Mpnot2)	device_current
	402	Ig(Mpnot2)	device_current
	403	Ib(Mpnot2)	device_current
	404	Is(Mpnot2)	device_current
	405	Id(Min1)	device_current
	406	Ig(Min1)	device_current
	407	Ib(Min1)	device_current
	408	Is(Min1)	device_current
	409	Id(Mina1)	device_current
	410	Ig(Mina1)	device_current
	411	Ib(Mina1)	device_current
	412	Is(Mina1)	device_current
	413	Id(Mpnot1)	device_current
	414	Ig(Mpnot1)	device_current
	415	Ib(Mpnot1)	device_current
	416	Is(Mpnot1)	device_current
	417	Id(Mw1)	device_current
	418	Ig(Mw1)	device_current
	419	Ib(Mw1)	device_current
	420	Is(Mw1)	device_current
	421	Id(M14)	device_current
	422	Ig(M14)	device_current
	423	Ib(M14)	device_current
	424	Is(M14)	device_current
	425	Id(M13)	device_current
	426	Ig(M13)	device_current
	427	Ib(M13)	device_current
	428	Is(M13)	device_current
	429	Id(Mnnot14)	device_current
	430	Ig(Mnnot14)	device_current
	431	Ib(Mnnot14)	device_current
	432	Is(Mnnot14)	device_current
	433	Id(Mvlk7)	device_current
	434	Ig(Mvlk7)	device_current
	435	Ib(Mvlk7)	device_current
	436	Is(Mvlk7)	device_current
	437	Id(Mref7)	device_current
	438	Ig(Mref7)	device_current
	439	Ib(Mref7)	device_current
	440	Is(Mref7)	device_current
	441	Id(Mvref7)	device_current
	442	Ig(Mvref7)	device_current
	443	Ib(Mvref7)	device_current
	444	Is(Mvref7)	device_current
	445	Id(Mnnot13)	device_current
	446	Ig(Mnnot13)	device_current
	447	Ib(Mnnot13)	device_current
	448	Is(Mnnot13)	device_current
	449	Id(M12)	device_current
	450	Ig(M12)	device_current
	451	Ib(M12)	device_current
	452	Is(M12)	device_current
	453	Id(M11)	device_current
	454	Ig(M11)	device_current
	455	Ib(M11)	device_current
	456	Is(M11)	device_current
	457	Id(Mnnot12)	device_current
	458	Ig(Mnnot12)	device_current
	459	Ib(Mnnot12)	device_current
	460	Is(Mnnot12)	device_current
	461	Id(Mvlk6)	device_current
	462	Ig(Mvlk6)	device_current
	463	Ib(Mvlk6)	device_current
	464	Is(Mvlk6)	device_current
	465	Id(Mref6)	device_current
	466	Ig(Mref6)	device_current
	467	Ib(Mref6)	device_current
	468	Is(Mref6)	device_current
	469	Id(Mvref6)	device_current
	470	Ig(Mvref6)	device_current
	471	Ib(Mvref6)	device_current
	472	Is(Mvref6)	device_current
	473	Id(Mnnot11)	device_current
	474	Ig(Mnnot11)	device_current
	475	Ib(Mnnot11)	device_current
	476	Is(Mnnot11)	device_current
	477	Id(M10)	device_current
	478	Ig(M10)	device_current
	479	Ib(M10)	device_current
	480	Is(M10)	device_current
	481	Id(M9)	device_current
	482	Ig(M9)	device_current
	483	Ib(M9)	device_current
	484	Is(M9)	device_current
	485	Id(Mnnot10)	device_current
	486	Ig(Mnnot10)	device_current
	487	Ib(Mnnot10)	device_current
	488	Is(Mnnot10)	device_current
	489	Id(Mvlk5)	device_current
	490	Ig(Mvlk5)	device_current
	491	Ib(Mvlk5)	device_current
	492	Is(Mvlk5)	device_current
	493	Id(Mref5)	device_current
	494	Ig(Mref5)	device_current
	495	Ib(Mref5)	device_current
	496	Is(Mref5)	device_current
	497	Id(Mvref5)	device_current
	498	Ig(Mvref5)	device_current
	499	Ib(Mvref5)	device_current
	500	Is(Mvref5)	device_current
	501	Id(Mnnot9)	device_current
	502	Ig(Mnnot9)	device_current
	503	Ib(Mnnot9)	device_current
	504	Is(Mnnot9)	device_current
	505	Id(M6)	device_current
	506	Ig(M6)	device_current
	507	Ib(M6)	device_current
	508	Is(M6)	device_current
	509	Id(M5)	device_current
	510	Ig(M5)	device_current
	511	Ib(M5)	device_current
	512	Is(M5)	device_current
	513	Id(Mnnot6)	device_current
	514	Ig(Mnnot6)	device_current
	515	Ib(Mnnot6)	device_current
	516	Is(Mnnot6)	device_current
	517	Id(Mvlk3)	device_current
	518	Ig(Mvlk3)	device_current
	519	Ib(Mvlk3)	device_current
	520	Is(Mvlk3)	device_current
	521	Id(Mref3)	device_current
	522	Ig(Mref3)	device_current
	523	Ib(Mref3)	device_current
	524	Is(Mref3)	device_current
	525	Id(Mvref3)	device_current
	526	Ig(Mvref3)	device_current
	527	Ib(Mvref3)	device_current
	528	Is(Mvref3)	device_current
	529	Id(Mnnot5)	device_current
	530	Ig(Mnnot5)	device_current
	531	Ib(Mnnot5)	device_current
	532	Is(Mnnot5)	device_current
	533	Id(M4)	device_current
	534	Ig(M4)	device_current
	535	Ib(M4)	device_current
	536	Is(M4)	device_current
	537	Id(M3)	device_current
	538	Ig(M3)	device_current
	539	Ib(M3)	device_current
	540	Is(M3)	device_current
	541	Id(Mnnot4)	device_current
	542	Ig(Mnnot4)	device_current
	543	Ib(Mnnot4)	device_current
	544	Is(Mnnot4)	device_current
	545	Id(Mvlk2)	device_current
	546	Ig(Mvlk2)	device_current
	547	Ib(Mvlk2)	device_current
	548	Is(Mvlk2)	device_current
	549	Id(Mref2)	device_current
	550	Ig(Mref2)	device_current
	551	Ib(Mref2)	device_current
	552	Is(Mref2)	device_current
	553	Id(Mvref2)	device_current
	554	Ig(Mvref2)	device_current
	555	Ib(Mvref2)	device_current
	556	Is(Mvref2)	device_current
	557	Id(Mnnot3)	device_current
	558	Ig(Mnnot3)	device_current
	559	Ib(Mnnot3)	device_current
	560	Is(Mnnot3)	device_current
	561	Id(M2)	device_current
	562	Ig(M2)	device_current
	563	Ib(M2)	device_current
	564	Is(M2)	device_current
	565	Id(M1)	device_current
	566	Ig(M1)	device_current
	567	Ib(M1)	device_current
	568	Is(M1)	device_current
	569	Id(Mnnot2)	device_current
	570	Ig(Mnnot2)	device_current
	571	Ib(Mnnot2)	device_current
	572	Is(Mnnot2)	device_current
	573	Id(Mvlk1)	device_current
	574	Ig(Mvlk1)	device_current
	575	Ib(Mvlk1)	device_current
	576	Is(Mvlk1)	device_current
	577	Id(Mref1)	device_current
	578	Ig(Mref1)	device_current
	579	Ib(Mref1)	device_current
	580	Is(Mref1)	device_current
	581	Id(Mvref1)	device_current
	582	Ig(Mvref1)	device_current
	583	Ib(Mvref1)	device_current
	584	Is(Mvref1)	device_current
	585	Id(Mnnot1)	device_current
	586	Ig(Mnnot1)	device_current
	587	Ib(Mnnot1)	device_current
	588	Is(Mnnot1)	device_current
	589	Id(M23)	device_current
	590	Ig(M23)	device_current
	591	Ib(M23)	device_current
	592	Is(M23)	device_current
	593	Id(M22)	device_current
	594	Ig(M22)	device_current
	595	Ib(M22)	device_current
	596	Is(M22)	device_current
	597	Id(M21)	device_current
	598	Ig(M21)	device_current
	599	Ib(M21)	device_current
	600	Is(M21)	device_current
	601	Id(M19)	device_current
	602	Ig(M19)	device_current
	603	Ib(M19)	device_current
	604	Is(M19)	device_current
	605	Id(M18)	device_current
	606	Ig(M18)	device_current
	607	Ib(M18)	device_current
	608	Is(M18)	device_current
	609	Id(M17)	device_current
	610	Ig(M17)	device_current
	611	Ib(M17)	device_current
	612	Is(M17)	device_current
	613	I(Cint7)	device_current
	614	I(Ck7)	device_current
	615	I(Csyn7)	device_current
	616	I(Cint6)	device_current
	617	I(Ck6)	device_current
	618	I(Csyn6)	device_current
	619	I(Cint5)	device_current
	620	I(Ck5)	device_current
	621	I(Csyn5)	device_current
	622	I(Cint3)	device_current
	623	I(Ck3)	device_current
	624	I(Csyn3)	device_current
	625	I(Cint2)	device_current
	626	I(Ck2)	device_current
	627	I(Csyn2)	device_current
	628	I(Cint1)	device_current
	629	I(Ck1)	device_current
	630	I(Csyn1)	device_current
	631	I(C9)	device_current
	632	I(C7)	device_current
	633	I(C6)	device_current
	634	I(C5)	device_current
	635	I(C3)	device_current
	636	I(C2)	device_current
	637	I(C1)	device_current
	638	I(D112)	device_current
	639	I(D111)	device_current
	640	I(D110)	device_current
	641	I(D109)	device_current
	642	I(D108)	device_current
	643	I(D107)	device_current
	644	I(D106)	device_current
	645	I(D105)	device_current
	646	I(D104)	device_current
	647	I(D103)	device_current
	648	I(D102)	device_current
	649	I(D101)	device_current
	650	I(D100)	device_current
	651	I(D99)	device_current
	652	I(D98)	device_current
	653	I(D97)	device_current
	654	I(D96)	device_current
	655	I(D95)	device_current
	656	I(D94)	device_current
	657	I(D93)	device_current
	658	I(D92)	device_current
	659	I(D91)	device_current
	660	I(D90)	device_current
	661	I(D89)	device_current
	662	I(D88)	device_current
	663	I(D87)	device_current
	664	I(D86)	device_current
	665	I(D85)	device_current
	666	I(D84)	device_current
	667	I(D83)	device_current
	668	I(D82)	device_current
	669	I(D81)	device_current
	670	I(D80)	device_current
	671	I(D79)	device_current
	672	I(D78)	device_current
	673	I(D77)	device_current
	674	I(D76)	device_current
	675	I(D75)	device_current
	676	I(D74)	device_current
	677	I(D73)	device_current
	678	I(D72)	device_current
	679	I(D71)	device_current
	680	I(D70)	device_current
	681	I(D69)	device_current
	682	I(D68)	device_current
	683	I(D67)	device_current
	684	I(D66)	device_current
	685	I(D65)	device_current
	686	I(D48)	device_current
	687	I(D47)	device_current
	688	I(D46)	device_current
	689	I(D45)	device_current
	690	I(D44)	device_current
	691	I(D43)	device_current
	692	I(D42)	device_current
	693	I(D41)	device_current
	694	I(D40)	device_current
	695	I(D39)	device_current
	696	I(D38)	device_current
	697	I(D37)	device_current
	698	I(D36)	device_current
	699	I(D35)	device_current
	700	I(D34)	device_current
	701	I(D33)	device_current
	702	I(D32)	device_current
	703	I(D31)	device_current
	704	I(D30)	device_current
	705	I(D29)	device_current
	706	I(D28)	device_current
	707	I(D27)	device_current
	708	I(D26)	device_current
	709	I(D25)	device_current
	710	I(D24)	device_current
	711	I(D23)	device_current
	712	I(D22)	device_current
	713	I(D21)	device_current
	714	I(D20)	device_current
	715	I(D19)	device_current
	716	I(D18)	device_current
	717	I(D17)	device_current
	718	I(D16)	device_current
	719	I(D15)	device_current
	720	I(D14)	device_current
	721	I(D13)	device_current
	722	I(D12)	device_current
	723	I(D11)	device_current
	724	I(D10)	device_current
	725	I(D9)	device_current
	726	I(D8)	device_current
	727	I(D7)	device_current
	728	I(D6)	device_current
	729	I(D5)	device_current
	730	I(D4)	device_current
	731	I(D3)	device_current
	732	I(D2)	device_current
	733	I(D1)	device_current
	734	I(R5)	device_current
	735	I(R4)	device_current
	736	I(R3)	device_current
	737	I(R2)	device_current
	738	I(R1)	device_current
	739	I(R371)	device_current
	740	I(R370)	device_current
	741	I(R369)	device_current
	742	I(R368)	device_current
	743	I(R367)	device_current
	744	I(R366)	device_current
	745	I(R365)	device_current
	746	I(R311)	device_current
	747	I(R310)	device_current
	748	I(R309)	device_current
	749	I(R308)	device_current
	750	I(R307)	device_current
	751	I(R306)	device_current
	752	I(R305)	device_current
	753	I(R304)	device_current
	754	I(R303)	device_current
	755	I(R302)	device_current
	756	I(R301)	device_current
	757	I(R300)	device_current
	758	I(R299)	device_current
	759	I(R298)	device_current
	760	I(R297)	device_current
	761	I(R296)	device_current
	762	I(R295)	device_current
	763	I(R294)	device_current
	764	I(R293)	device_current
	765	I(R292)	device_current
	766	I(R291)	device_current
	767	I(R290)	device_current
	768	I(R289)	device_current
	769	I(R288)	device_current
	770	I(R287)	device_current
	771	I(R286)	device_current
	772	I(R285)	device_current
	773	I(R284)	device_current
	774	I(R283)	device_current
	775	I(R282)	device_current
	776	I(R281)	device_current
	777	I(R280)	device_current
	778	I(R279)	device_current
	779	I(R278)	device_current
	780	I(R277)	device_current
	781	I(R276)	device_current
	782	I(R275)	device_current
	783	I(R274)	device_current
	784	I(R273)	device_current
	785	I(R272)	device_current
	786	I(R271)	device_current
	787	I(R270)	device_current
	788	I(R269)	device_current
	789	I(R268)	device_current
	790	I(R267)	device_current
	791	I(R266)	device_current
	792	I(R265)	device_current
	793	I(R264)	device_current
	794	I(R263)	device_current
	795	I(R262)	device_current
	796	I(R261)	device_current
	797	I(R260)	device_current
	798	I(R259)	device_current
	799	I(R258)	device_current
	800	I(R257)	device_current
	801	I(R256)	device_current
	802	I(R255)	device_current
	803	I(R254)	device_current
	804	I(R253)	device_current
	805	I(R252)	device_current
	806	I(R251)	device_current
	807	I(R250)	device_current
	808	I(R249)	device_current
	809	I(R248)	device_current
	810	I(R247)	device_current
	811	I(R246)	device_current
	812	I(R245)	device_current
	813	I(R244)	device_current
	814	I(R243)	device_current
	815	I(R242)	device_current
	816	I(R241)	device_current
	817	I(R240)	device_current
	818	I(R239)	device_current
	819	I(R238)	device_current
	820	I(R237)	device_current
	821	I(R236)	device_current
	822	I(R235)	device_current
	823	I(R234)	device_current
	824	I(R233)	device_current
	825	I(R232)	device_current
	826	I(R231)	device_current
	827	I(R230)	device_current
	828	I(R229)	device_current
	829	I(R228)	device_current
	830	I(R227)	device_current
	831	I(R226)	device_current
	832	I(R225)	device_current
	833	I(R224)	device_current
	834	I(R223)	device_current
	835	I(R222)	device_current
	836	I(R221)	device_current
	837	I(R220)	device_current
	838	I(R219)	device_current
	839	I(R218)	device_current
	840	I(R217)	device_current
	841	I(R216)	device_current
	842	I(R215)	device_current
	843	I(R214)	device_current
	844	I(R213)	device_current
	845	I(R212)	device_current
	846	I(R211)	device_current
	847	I(R210)	device_current
	848	I(R209)	device_current
	849	I(R208)	device_current
	850	I(R207)	device_current
	851	I(R206)	device_current
	852	I(R205)	device_current
	853	I(R204)	device_current
	854	I(R203)	device_current
	855	I(R202)	device_current
	856	I(R201)	device_current
	857	I(R200)	device_current
	858	I(R199)	device_current
	859	I(R198)	device_current
	860	I(R197)	device_current
	861	I(R196)	device_current
	862	I(R195)	device_current
	863	I(R194)	device_current
	864	I(R193)	device_current
	865	I(R192)	device_current
	866	I(R191)	device_current
	867	I(R190)	device_current
	868	I(R189)	device_current
	869	I(R188)	device_current
	870	I(R187)	device_current
	871	I(R186)	device_current
	872	I(R143)	device_current
	873	I(R142)	device_current
	874	I(R141)	device_current
	875	I(R140)	device_current
	876	I(R139)	device_current
	877	I(R138)	device_current
	878	I(R137)	device_current
	879	I(R136)	device_current
	880	I(R135)	device_current
	881	I(R134)	device_current
	882	I(R133)	device_current
	883	I(R132)	device_current
	884	I(R131)	device_current
	885	I(R130)	device_current
	886	I(R129)	device_current
	887	I(R128)	device_current
	888	I(R127)	device_current
	889	I(R126)	device_current
	890	I(R125)	device_current
	891	I(R124)	device_current
	892	I(R123)	device_current
	893	I(R122)	device_current
	894	I(R121)	device_current
	895	I(R120)	device_current
	896	I(R119)	device_current
	897	I(R118)	device_current
	898	I(R117)	device_current
	899	I(R116)	device_current
	900	I(R115)	device_current
	901	I(R114)	device_current
	902	I(R113)	device_current
	903	I(R112)	device_current
	904	I(R111)	device_current
	905	I(R110)	device_current
	906	I(R109)	device_current
	907	I(R108)	device_current
	908	I(R107)	device_current
	909	I(R106)	device_current
	910	I(R105)	device_current
	911	I(R104)	device_current
	912	I(R103)	device_current
	913	I(R102)	device_current
	914	I(R101)	device_current
	915	I(R100)	device_current
	916	I(R99)	device_current
	917	I(R98)	device_current
	918	I(R97)	device_current
	919	I(R96)	device_current
	920	I(R95)	device_current
	921	I(R94)	device_current
	922	I(R93)	device_current
	923	I(R92)	device_current
	924	I(R91)	device_current
	925	I(R90)	device_current
	926	I(R89)	device_current
	927	I(R88)	device_current
	928	I(R87)	device_current
	929	I(R86)	device_current
	930	I(R85)	device_current
	931	I(R84)	device_current
	932	I(R83)	device_current
	933	I(R82)	device_current
	934	I(R81)	device_current
	935	I(R80)	device_current
	936	I(R79)	device_current
	937	I(R78)	device_current
	938	I(R77)	device_current
	939	I(R76)	device_current
	940	I(R75)	device_current
	941	I(R74)	device_current
	942	I(R73)	device_current
	943	I(R72)	device_current
	944	I(R71)	device_current
	945	I(R70)	device_current
	946	I(R69)	device_current
	947	I(R68)	device_current
	948	I(R67)	device_current
	949	I(R66)	device_current
	950	I(R65)	device_current
	951	I(R64)	device_current
	952	I(R63)	device_current
	953	I(R62)	device_current
	954	I(R61)	device_current
	955	I(R60)	device_current
	956	I(R59)	device_current
	957	I(R58)	device_current
	958	I(R57)	device_current
	959	I(R56)	device_current
	960	I(R55)	device_current
	961	I(R54)	device_current
	962	I(R53)	device_current
	963	I(R52)	device_current
	964	I(R51)	device_current
	965	I(R50)	device_current
	966	I(R49)	device_current
	967	I(R48)	device_current
	968	I(R47)	device_current
	969	I(R46)	device_current
	970	I(R45)	device_current
	971	I(R44)	device_current
	972	I(R43)	device_current
	973	I(R42)	device_current
	974	I(R41)	device_current
	975	I(R40)	device_current
	976	I(R39)	device_current
	977	I(R38)	device_current
	978	I(R37)	device_current
	979	I(R36)	device_current
	980	I(R35)	device_current
	981	I(R34)	device_current
	982	I(R33)	device_current
	983	I(R32)	device_current
	984	I(R31)	device_current
	985	I(R30)	device_current
	986	I(R29)	device_current
	987	I(R28)	device_current
	988	I(R27)	device_current
	989	I(R26)	device_current
	990	I(R25)	device_current
	991	I(R24)	device_current
	992	I(R23)	device_current
	993	I(R22)	device_current
	994	I(R9)	device_current
	995	I(R8)	device_current
	996	I(R7)	device_current
	997	I(R6)	device_current
	998	I(R363)	device_current
	999	I(R362)	device_current
	1000	I(R361)	device_current
	1001	I(R359)	device_current
	1002	I(R358)	device_current
	1003	I(R357)	device_current
	1004	I(R356)	device_current
	1005	I(R355)	device_current
	1006	I(R354)	device_current
	1007	I(R21)	device_current
	1008	I(R20)	device_current
	1009	I(R19)	device_current
	1010	I(R18)	device_current
	1011	I(R17)	device_current
	1012	I(R16)	device_current
	1013	I(R15)	device_current
	1014	I(R14)	device_current
	1015	I(R13)	device_current
	1016	I(R12)	device_current
	1017	I(R11)	device_current
	1018	I(R10)	device_current
	1019	I(V5)	device_current
	1020	I(V3)	device_current
	1021	I(Vdd3)	device_current