Title: * C:\Users\Avi\Desktop\IEEGIT\TBioCAS2021\FIG5\4OZ\pure\OZ_4_pure_curves.asc
Date: Tue Apr 27 08:48:49 2021
Plotname: Operating Point
Flags: real
No. Variables: 1065
No. Points:            1
Offset:   0.0000000000000000e+000
Command: Linear Technology Corporation LTspice XVII
Backannotation: u1 1 2 3 4 5
Backannotation: u2 1 2 3 4 5
Backannotation: u3 1 2 3 4 5
Backannotation: u4 1 2 3 4 5
Backannotation: u5 1 2 3 4 5
Backannotation: u6 1 2 3 4 5
Backannotation: u7 1 2 3 4 5
Backannotation: u8 1 2 3 4 5
Backannotation: u121 1 2 3 4 5
Backannotation: u122 1 2 3 4 5
Backannotation: u123 1 2 3 4 5
Backannotation: u9 1 2 3 4 5
Backannotation: u10 1 2 3 4 5
Backannotation: u11 1 2 3 4 5
Backannotation: u12 1 2 3 4 5
Backannotation: u13 1 2 3 4 5
Backannotation: u14 1 2 3 4 5
Backannotation: u15 1 2 3 4 5
Backannotation: u16 1 2 3 4 5
Backannotation: u17 1 2 3 4 5
Backannotation: u18 1 2 3 4 5
Backannotation: u19 1 2 3 4 5
Backannotation: u20 1 2 3 4 5
Backannotation: u21 1 2 3 4 5
Backannotation: u22 1 2 3 4 5
Backannotation: u23 1 2 3 4 5
Backannotation: u24 1 2 3 4 5
Backannotation: u25 1 2 3 4 5
Backannotation: u26 1 2 3 4 5
Backannotation: u27 1 2 3 4 5
Backannotation: u28 1 2 3 4 5
Backannotation: u29 1 2 3 4 5
Backannotation: u30 1 2 3 4 5
Backannotation: u31 1 2 3 4 5
Backannotation: u32 1 2 3 4 5
Backannotation: u33 1 2 3 4 5
Backannotation: u34 1 2 3 4 5
Backannotation: u35 1 2 3 4 5
Backannotation: u36 1 2 3 4 5
Backannotation: u65 1 2 3 4 5
Backannotation: u66 1 2 3 4 5
Backannotation: u67 1 2 3 4 5
Backannotation: u68 1 2 3 4 5
Backannotation: u69 1 2 3 4 5
Backannotation: u70 1 2 3 4 5
Backannotation: u71 1 2 3 4 5
Backannotation: u72 1 2 3 4 5
Backannotation: u73 1 2 3 4 5
Backannotation: u74 1 2 3 4 5
Backannotation: u75 1 2 3 4 5
Backannotation: u76 1 2 3 4 5
Backannotation: u77 1 2 3 4 5
Backannotation: u78 1 2 3 4 5
Backannotation: u79 1 2 3 4 5
Backannotation: u80 1 2 3 4 5
Backannotation: u81 1 2 3 4 5
Backannotation: u82 1 2 3 4 5
Backannotation: u83 1 2 3 4 5
Backannotation: u84 1 2 3 4 5
Backannotation: u85 1 2 3 4 5
Backannotation: u86 1 2 3 4 5
Backannotation: u87 1 2 3 4 5
Backannotation: u88 1 2 3 4 5
Backannotation: u89 1 2 3 4 5
Backannotation: u90 1 2 3 4 5
Backannotation: u91 1 2 3 4 5
Backannotation: u92 1 2 3 4 5
Backannotation: u124 1 2 3 4 5
Backannotation: u125 1 2 3 4 5
Backannotation: u126 1 2 3 4 5
Variables:
	0	V(vint)	voltage
	1	V(vdd)	voltage
	2	V(vss-)	voltage
	3	V(vss+)	voltage
	4	V(voffset)	voltage
	5	V(vref)	voltage
	6	V(vw)	voltage
	7	V(vgnd)	voltage
	8	V(n017)	voltage
	9	V(n018)	voltage
	10	V(n023)	voltage
	11	V(n019)	voltage
	12	V(n020)	voltage
	13	V(n021)	voltage
	14	V(n022)	voltage
	15	V(n025)	voltage
	16	V(n026)	voltage
	17	V(n027)	voltage
	18	V(n028)	voltage
	19	V(vin)	voltage
	20	V(vpos)	voltage
	21	V(vneg)	voltage
	22	V(vout)	voltage
	23	V(n031)	voltage
	24	V(n024)	voltage
	25	V(n029)	voltage
	26	V(n030)	voltage
	27	V(t1)	voltage
	28	V(t2)	voltage
	29	V(t5)	voltage
	30	V(t6)	voltage
	31	V(n097)	voltage
	32	V(wc)	voltage
	33	V(n072)	voltage
	34	V(n080)	voltage
	35	V(n081)	voltage
	36	V(n051)	voltage
	37	V(n090)	voltage
	38	V(n071)	voltage
	39	V(n040)	voltage
	40	V(n044)	voltage
	41	V(n069)	voltage
	42	V(n070)	voltage
	43	V(errorsig)	voltage
	44	V(n048)	voltage
	45	V(n046)	voltage
	46	V(n045)	voltage
	47	V(n039)	voltage
	48	V(n088)	voltage
	49	V(n042)	voltage
	50	V(n089)	voltage
	51	V(n049)	voltage
	52	V(n043)	voltage
	53	V(n052)	voltage
	54	V(n082)	voltage
	55	V(n050)	voltage
	56	V(n091)	voltage
	57	V(n057)	voltage
	58	V(n054)	voltage
	59	V(n053)	voltage
	60	V(n101)	voltage
	61	V(n055)	voltage
	62	V(n102)	voltage
	63	V(n058)	voltage
	64	V(n056)	voltage
	65	V(n061)	voltage
	66	V(n092)	voltage
	67	V(n062)	voltage
	68	V(n063)	voltage
	69	V(vout1)	voltage
	70	V(n169)	voltage
	71	V(n144)	voltage
	72	V(n152)	voltage
	73	V(n153)	voltage
	74	V(n123)	voltage
	75	V(n162)	voltage
	76	V(n143)	voltage
	77	V(n112)	voltage
	78	V(n116)	voltage
	79	V(n141)	voltage
	80	V(n142)	voltage
	81	V(n120)	voltage
	82	V(n118)	voltage
	83	V(n117)	voltage
	84	V(n111)	voltage
	85	V(n160)	voltage
	86	V(n114)	voltage
	87	V(n161)	voltage
	88	V(n121)	voltage
	89	V(n115)	voltage
	90	V(n124)	voltage
	91	V(n154)	voltage
	92	V(n122)	voltage
	93	V(n163)	voltage
	94	V(n129)	voltage
	95	V(n126)	voltage
	96	V(n125)	voltage
	97	V(n173)	voltage
	98	V(n127)	voltage
	99	V(n174)	voltage
	100	V(n130)	voltage
	101	V(n128)	voltage
	102	V(n133)	voltage
	103	V(n164)	voltage
	104	V(n134)	voltage
	105	V(n135)	voltage
	106	V(vout2)	voltage
	107	V(n108)	voltage
	108	V(n096)	voltage
	109	V(n098)	voltage
	110	V(n099)	voltage
	111	V(n074)	voltage
	112	V(n105)	voltage
	113	V(n095)	voltage
	114	V(n047)	voltage
	115	V(n064)	voltage
	116	V(n093)	voltage
	117	V(n094)	voltage
	118	V(n067)	voltage
	119	V(n066)	voltage
	120	V(n065)	voltage
	121	V(n041)	voltage
	122	V(n103)	voltage
	123	V(n059)	voltage
	124	V(n104)	voltage
	125	V(n068)	voltage
	126	V(n060)	voltage
	127	V(n075)	voltage
	128	V(n100)	voltage
	129	V(n073)	voltage
	130	V(n106)	voltage
	131	V(n083)	voltage
	132	V(n077)	voltage
	133	V(n076)	voltage
	134	V(n109)	voltage
	135	V(n078)	voltage
	136	V(n110)	voltage
	137	V(n084)	voltage
	138	V(n079)	voltage
	139	V(n085)	voltage
	140	V(n107)	voltage
	141	V(n086)	voltage
	142	V(n087)	voltage
	143	V(vout5)	voltage
	144	V(n180)	voltage
	145	V(n168)	voltage
	146	V(n170)	voltage
	147	V(n171)	voltage
	148	V(n146)	voltage
	149	V(n177)	voltage
	150	V(n167)	voltage
	151	V(n119)	voltage
	152	V(n136)	voltage
	153	V(n165)	voltage
	154	V(n166)	voltage
	155	V(n139)	voltage
	156	V(n138)	voltage
	157	V(n137)	voltage
	158	V(n113)	voltage
	159	V(n175)	voltage
	160	V(n131)	voltage
	161	V(n176)	voltage
	162	V(n140)	voltage
	163	V(n132)	voltage
	164	V(n147)	voltage
	165	V(n172)	voltage
	166	V(n145)	voltage
	167	V(n178)	voltage
	168	V(n155)	voltage
	169	V(n149)	voltage
	170	V(n148)	voltage
	171	V(n181)	voltage
	172	V(n150)	voltage
	173	V(n182)	voltage
	174	V(n156)	voltage
	175	V(n151)	voltage
	176	V(n157)	voltage
	177	V(n179)	voltage
	178	V(n158)	voltage
	179	V(n159)	voltage
	180	V(vout6)	voltage
	181	V(n033)	voltage
	182	V(n037)	voltage
	183	V(n034)	voltage
	184	V(n036)	voltage
	185	V(n035)	voltage
	186	V(n038)	voltage
	187	V(n032)	voltage
	188	V(n006)	voltage
	189	V(n004)	voltage
	190	V(spikes1)	voltage
	191	V(n002)	voltage
	192	V(n008)	voltage
	193	V(v0)	voltage
	194	V(vlk)	voltage
	195	V(n014)	voltage
	196	V(n012)	voltage
	197	V(spikes2)	voltage
	198	V(n010)	voltage
	199	V(n016)	voltage
	200	V(v1)	voltage
	201	V(n005)	voltage
	202	V(n003)	voltage
	203	V(spikes5)	voltage
	204	V(n001)	voltage
	205	V(n007)	voltage
	206	V(n013)	voltage
	207	V(n011)	voltage
	208	V(spikes6)	voltage
	209	V(n009)	voltage
	210	V(n015)	voltage
	211	V(v2)	voltage
	212	V(v3)	voltage
	213	V(v4)	voltage
	214	I(B1)	device_current
	215	Id(Mpnot12)	device_current
	216	Ig(Mpnot12)	device_current
	217	Ib(Mpnot12)	device_current
	218	Is(Mpnot12)	device_current
	219	Id(Min6)	device_current
	220	Ig(Min6)	device_current
	221	Ib(Min6)	device_current
	222	Is(Min6)	device_current
	223	Id(Mina6)	device_current
	224	Ig(Mina6)	device_current
	225	Ib(Mina6)	device_current
	226	Is(Mina6)	device_current
	227	Id(Mpnot11)	device_current
	228	Ig(Mpnot11)	device_current
	229	Ib(Mpnot11)	device_current
	230	Is(Mpnot11)	device_current
	231	Id(Mw6)	device_current
	232	Ig(Mw6)	device_current
	233	Ib(Mw6)	device_current
	234	Is(Mw6)	device_current
	235	Id(Mpnot10)	device_current
	236	Ig(Mpnot10)	device_current
	237	Ib(Mpnot10)	device_current
	238	Is(Mpnot10)	device_current
	239	Id(Min5)	device_current
	240	Ig(Min5)	device_current
	241	Ib(Min5)	device_current
	242	Is(Min5)	device_current
	243	Id(Mina5)	device_current
	244	Ig(Mina5)	device_current
	245	Ib(Mina5)	device_current
	246	Is(Mina5)	device_current
	247	Id(Mpnot9)	device_current
	248	Ig(Mpnot9)	device_current
	249	Ib(Mpnot9)	device_current
	250	Is(Mpnot9)	device_current
	251	Id(Mw5)	device_current
	252	Ig(Mw5)	device_current
	253	Ib(Mw5)	device_current
	254	Is(Mw5)	device_current
	255	Id(Mpnot4)	device_current
	256	Ig(Mpnot4)	device_current
	257	Ib(Mpnot4)	device_current
	258	Is(Mpnot4)	device_current
	259	Id(Min2)	device_current
	260	Ig(Min2)	device_current
	261	Ib(Min2)	device_current
	262	Is(Min2)	device_current
	263	Id(Mina2)	device_current
	264	Ig(Mina2)	device_current
	265	Ib(Mina2)	device_current
	266	Is(Mina2)	device_current
	267	Id(Mpnot3)	device_current
	268	Ig(Mpnot3)	device_current
	269	Ib(Mpnot3)	device_current
	270	Is(Mpnot3)	device_current
	271	Id(Mw2)	device_current
	272	Ig(Mw2)	device_current
	273	Ib(Mw2)	device_current
	274	Is(Mw2)	device_current
	275	Id(Mpnot2)	device_current
	276	Ig(Mpnot2)	device_current
	277	Ib(Mpnot2)	device_current
	278	Is(Mpnot2)	device_current
	279	Id(Min1)	device_current
	280	Ig(Min1)	device_current
	281	Ib(Min1)	device_current
	282	Is(Min1)	device_current
	283	Id(Mina1)	device_current
	284	Ig(Mina1)	device_current
	285	Ib(Mina1)	device_current
	286	Is(Mina1)	device_current
	287	Id(Mpnot1)	device_current
	288	Ig(Mpnot1)	device_current
	289	Ib(Mpnot1)	device_current
	290	Is(Mpnot1)	device_current
	291	Id(Mw1)	device_current
	292	Ig(Mw1)	device_current
	293	Ib(Mw1)	device_current
	294	Is(Mw1)	device_current
	295	Id(M12)	device_current
	296	Ig(M12)	device_current
	297	Ib(M12)	device_current
	298	Is(M12)	device_current
	299	Id(M11)	device_current
	300	Ig(M11)	device_current
	301	Ib(M11)	device_current
	302	Is(M11)	device_current
	303	Id(Mnnot12)	device_current
	304	Ig(Mnnot12)	device_current
	305	Ib(Mnnot12)	device_current
	306	Is(Mnnot12)	device_current
	307	Id(Mvlk6)	device_current
	308	Ig(Mvlk6)	device_current
	309	Ib(Mvlk6)	device_current
	310	Is(Mvlk6)	device_current
	311	Id(Mref6)	device_current
	312	Ig(Mref6)	device_current
	313	Ib(Mref6)	device_current
	314	Is(Mref6)	device_current
	315	Id(Mvref6)	device_current
	316	Ig(Mvref6)	device_current
	317	Ib(Mvref6)	device_current
	318	Is(Mvref6)	device_current
	319	Id(Mnnot11)	device_current
	320	Ig(Mnnot11)	device_current
	321	Ib(Mnnot11)	device_current
	322	Is(Mnnot11)	device_current
	323	Id(M10)	device_current
	324	Ig(M10)	device_current
	325	Ib(M10)	device_current
	326	Is(M10)	device_current
	327	Id(M9)	device_current
	328	Ig(M9)	device_current
	329	Ib(M9)	device_current
	330	Is(M9)	device_current
	331	Id(Mnnot10)	device_current
	332	Ig(Mnnot10)	device_current
	333	Ib(Mnnot10)	device_current
	334	Is(Mnnot10)	device_current
	335	Id(Mvlk5)	device_current
	336	Ig(Mvlk5)	device_current
	337	Ib(Mvlk5)	device_current
	338	Is(Mvlk5)	device_current
	339	Id(Mref5)	device_current
	340	Ig(Mref5)	device_current
	341	Ib(Mref5)	device_current
	342	Is(Mref5)	device_current
	343	Id(Mvref5)	device_current
	344	Ig(Mvref5)	device_current
	345	Ib(Mvref5)	device_current
	346	Is(Mvref5)	device_current
	347	Id(Mnnot9)	device_current
	348	Ig(Mnnot9)	device_current
	349	Ib(Mnnot9)	device_current
	350	Is(Mnnot9)	device_current
	351	Id(M4)	device_current
	352	Ig(M4)	device_current
	353	Ib(M4)	device_current
	354	Is(M4)	device_current
	355	Id(M3)	device_current
	356	Ig(M3)	device_current
	357	Ib(M3)	device_current
	358	Is(M3)	device_current
	359	Id(Mnnot4)	device_current
	360	Ig(Mnnot4)	device_current
	361	Ib(Mnnot4)	device_current
	362	Is(Mnnot4)	device_current
	363	Id(Mvlk2)	device_current
	364	Ig(Mvlk2)	device_current
	365	Ib(Mvlk2)	device_current
	366	Is(Mvlk2)	device_current
	367	Id(Mref2)	device_current
	368	Ig(Mref2)	device_current
	369	Ib(Mref2)	device_current
	370	Is(Mref2)	device_current
	371	Id(Mvref2)	device_current
	372	Ig(Mvref2)	device_current
	373	Ib(Mvref2)	device_current
	374	Is(Mvref2)	device_current
	375	Id(Mnnot3)	device_current
	376	Ig(Mnnot3)	device_current
	377	Ib(Mnnot3)	device_current
	378	Is(Mnnot3)	device_current
	379	Id(M2)	device_current
	380	Ig(M2)	device_current
	381	Ib(M2)	device_current
	382	Is(M2)	device_current
	383	Id(M1)	device_current
	384	Ig(M1)	device_current
	385	Ib(M1)	device_current
	386	Is(M1)	device_current
	387	Id(Mnnot2)	device_current
	388	Ig(Mnnot2)	device_current
	389	Ib(Mnnot2)	device_current
	390	Is(Mnnot2)	device_current
	391	Id(Mvlk1)	device_current
	392	Ig(Mvlk1)	device_current
	393	Ib(Mvlk1)	device_current
	394	Is(Mvlk1)	device_current
	395	Id(Mref1)	device_current
	396	Ig(Mref1)	device_current
	397	Ib(Mref1)	device_current
	398	Is(Mref1)	device_current
	399	Id(Mvref1)	device_current
	400	Ig(Mvref1)	device_current
	401	Ib(Mvref1)	device_current
	402	Is(Mvref1)	device_current
	403	Id(Mnnot1)	device_current
	404	Ig(Mnnot1)	device_current
	405	Ib(Mnnot1)	device_current
	406	Is(Mnnot1)	device_current
	407	Id(M22)	device_current
	408	Ig(M22)	device_current
	409	Ib(M22)	device_current
	410	Is(M22)	device_current
	411	Id(M21)	device_current
	412	Ig(M21)	device_current
	413	Ib(M21)	device_current
	414	Is(M21)	device_current
	415	Id(M18)	device_current
	416	Ig(M18)	device_current
	417	Ib(M18)	device_current
	418	Is(M18)	device_current
	419	Id(M17)	device_current
	420	Ig(M17)	device_current
	421	Ib(M17)	device_current
	422	Is(M17)	device_current
	423	I(Cint6)	device_current
	424	I(Ck6)	device_current
	425	I(Csyn6)	device_current
	426	I(Cint5)	device_current
	427	I(Ck5)	device_current
	428	I(Csyn5)	device_current
	429	I(Cint2)	device_current
	430	I(Ck2)	device_current
	431	I(Csyn2)	device_current
	432	I(Cint1)	device_current
	433	I(Ck1)	device_current
	434	I(Csyn1)	device_current
	435	I(C9)	device_current
	436	I(C6)	device_current
	437	I(C5)	device_current
	438	I(C2)	device_current
	439	I(C1)	device_current
	440	I(D96)	device_current
	441	I(D95)	device_current
	442	I(D94)	device_current
	443	I(D93)	device_current
	444	I(D92)	device_current
	445	I(D91)	device_current
	446	I(D90)	device_current
	447	I(D89)	device_current
	448	I(D88)	device_current
	449	I(D87)	device_current
	450	I(D86)	device_current
	451	I(D85)	device_current
	452	I(D84)	device_current
	453	I(D83)	device_current
	454	I(D82)	device_current
	455	I(D81)	device_current
	456	I(D80)	device_current
	457	I(D79)	device_current
	458	I(D78)	device_current
	459	I(D77)	device_current
	460	I(D76)	device_current
	461	I(D75)	device_current
	462	I(D74)	device_current
	463	I(D73)	device_current
	464	I(D72)	device_current
	465	I(D71)	device_current
	466	I(D70)	device_current
	467	I(D69)	device_current
	468	I(D68)	device_current
	469	I(D67)	device_current
	470	I(D66)	device_current
	471	I(D65)	device_current
	472	I(D32)	device_current
	473	I(D31)	device_current
	474	I(D30)	device_current
	475	I(D29)	device_current
	476	I(D28)	device_current
	477	I(D27)	device_current
	478	I(D26)	device_current
	479	I(D25)	device_current
	480	I(D24)	device_current
	481	I(D23)	device_current
	482	I(D22)	device_current
	483	I(D21)	device_current
	484	I(D20)	device_current
	485	I(D19)	device_current
	486	I(D18)	device_current
	487	I(D17)	device_current
	488	I(D16)	device_current
	489	I(D15)	device_current
	490	I(D14)	device_current
	491	I(D13)	device_current
	492	I(D12)	device_current
	493	I(D11)	device_current
	494	I(D10)	device_current
	495	I(D9)	device_current
	496	I(D8)	device_current
	497	I(D7)	device_current
	498	I(D6)	device_current
	499	I(D5)	device_current
	500	I(D4)	device_current
	501	I(D3)	device_current
	502	I(D2)	device_current
	503	I(D1)	device_current
	504	I(R5)	device_current
	505	I(R4)	device_current
	506	I(R3)	device_current
	507	I(R2)	device_current
	508	I(R1)	device_current
	509	I(R371)	device_current
	510	I(R370)	device_current
	511	I(R369)	device_current
	512	I(R368)	device_current
	513	I(R367)	device_current
	514	I(R366)	device_current
	515	I(R365)	device_current
	516	I(R269)	device_current
	517	I(R268)	device_current
	518	I(R267)	device_current
	519	I(R266)	device_current
	520	I(R265)	device_current
	521	I(R264)	device_current
	522	I(R263)	device_current
	523	I(R262)	device_current
	524	I(R261)	device_current
	525	I(R260)	device_current
	526	I(R259)	device_current
	527	I(R258)	device_current
	528	I(R257)	device_current
	529	I(R256)	device_current
	530	I(R255)	device_current
	531	I(R254)	device_current
	532	I(R253)	device_current
	533	I(R252)	device_current
	534	I(R251)	device_current
	535	I(R250)	device_current
	536	I(R249)	device_current
	537	I(R248)	device_current
	538	I(R247)	device_current
	539	I(R246)	device_current
	540	I(R245)	device_current
	541	I(R244)	device_current
	542	I(R243)	device_current
	543	I(R242)	device_current
	544	I(R241)	device_current
	545	I(R240)	device_current
	546	I(R239)	device_current
	547	I(R238)	device_current
	548	I(R237)	device_current
	549	I(R236)	device_current
	550	I(R235)	device_current
	551	I(R234)	device_current
	552	I(R233)	device_current
	553	I(R232)	device_current
	554	I(R231)	device_current
	555	I(R230)	device_current
	556	I(R229)	device_current
	557	I(R228)	device_current
	558	I(R227)	device_current
	559	I(R226)	device_current
	560	I(R225)	device_current
	561	I(R224)	device_current
	562	I(R223)	device_current
	563	I(R222)	device_current
	564	I(R221)	device_current
	565	I(R220)	device_current
	566	I(R219)	device_current
	567	I(R218)	device_current
	568	I(R217)	device_current
	569	I(R216)	device_current
	570	I(R215)	device_current
	571	I(R214)	device_current
	572	I(R213)	device_current
	573	I(R212)	device_current
	574	I(R211)	device_current
	575	I(R210)	device_current
	576	I(R209)	device_current
	577	I(R208)	device_current
	578	I(R207)	device_current
	579	I(R206)	device_current
	580	I(R205)	device_current
	581	I(R204)	device_current
	582	I(R203)	device_current
	583	I(R202)	device_current
	584	I(R201)	device_current
	585	I(R200)	device_current
	586	I(R199)	device_current
	587	I(R198)	device_current
	588	I(R197)	device_current
	589	I(R196)	device_current
	590	I(R195)	device_current
	591	I(R194)	device_current
	592	I(R193)	device_current
	593	I(R192)	device_current
	594	I(R191)	device_current
	595	I(R190)	device_current
	596	I(R189)	device_current
	597	I(R188)	device_current
	598	I(R187)	device_current
	599	I(R186)	device_current
	600	I(R101)	device_current
	601	I(R100)	device_current
	602	I(R99)	device_current
	603	I(R98)	device_current
	604	I(R97)	device_current
	605	I(R96)	device_current
	606	I(R95)	device_current
	607	I(R94)	device_current
	608	I(R93)	device_current
	609	I(R92)	device_current
	610	I(R91)	device_current
	611	I(R90)	device_current
	612	I(R89)	device_current
	613	I(R88)	device_current
	614	I(R87)	device_current
	615	I(R86)	device_current
	616	I(R85)	device_current
	617	I(R84)	device_current
	618	I(R83)	device_current
	619	I(R82)	device_current
	620	I(R81)	device_current
	621	I(R80)	device_current
	622	I(R79)	device_current
	623	I(R78)	device_current
	624	I(R77)	device_current
	625	I(R76)	device_current
	626	I(R75)	device_current
	627	I(R74)	device_current
	628	I(R73)	device_current
	629	I(R72)	device_current
	630	I(R71)	device_current
	631	I(R70)	device_current
	632	I(R69)	device_current
	633	I(R68)	device_current
	634	I(R67)	device_current
	635	I(R66)	device_current
	636	I(R65)	device_current
	637	I(R64)	device_current
	638	I(R63)	device_current
	639	I(R62)	device_current
	640	I(R61)	device_current
	641	I(R60)	device_current
	642	I(R59)	device_current
	643	I(R58)	device_current
	644	I(R57)	device_current
	645	I(R56)	device_current
	646	I(R55)	device_current
	647	I(R54)	device_current
	648	I(R53)	device_current
	649	I(R52)	device_current
	650	I(R51)	device_current
	651	I(R50)	device_current
	652	I(R49)	device_current
	653	I(R48)	device_current
	654	I(R47)	device_current
	655	I(R46)	device_current
	656	I(R45)	device_current
	657	I(R44)	device_current
	658	I(R43)	device_current
	659	I(R42)	device_current
	660	I(R41)	device_current
	661	I(R40)	device_current
	662	I(R39)	device_current
	663	I(R38)	device_current
	664	I(R37)	device_current
	665	I(R36)	device_current
	666	I(R35)	device_current
	667	I(R34)	device_current
	668	I(R33)	device_current
	669	I(R32)	device_current
	670	I(R31)	device_current
	671	I(R30)	device_current
	672	I(R29)	device_current
	673	I(R28)	device_current
	674	I(R27)	device_current
	675	I(R26)	device_current
	676	I(R25)	device_current
	677	I(R24)	device_current
	678	I(R23)	device_current
	679	I(R22)	device_current
	680	I(R9)	device_current
	681	I(R8)	device_current
	682	I(R7)	device_current
	683	I(R6)	device_current
	684	I(R362)	device_current
	685	I(R361)	device_current
	686	I(R358)	device_current
	687	I(R357)	device_current
	688	I(R356)	device_current
	689	I(R355)	device_current
	690	I(R354)	device_current
	691	I(R21)	device_current
	692	I(R20)	device_current
	693	I(R19)	device_current
	694	I(R18)	device_current
	695	I(R17)	device_current
	696	I(R16)	device_current
	697	I(R15)	device_current
	698	I(R14)	device_current
	699	I(R13)	device_current
	700	I(R12)	device_current
	701	I(R11)	device_current
	702	I(R10)	device_current
	703	I(V5)	device_current
	704	I(V3)	device_current
	705	I(Vdd3)	device_current
	706	I(V4)	device_current
	707	I(Vdd2)	device_current
	708	I(Voff3)	device_current
	709	I(Voff2)	device_current
	710	I(Voff1)	device_current
	711	I(V2)	device_current
	712	I(V1)	device_current
	713	I(Vdd1)	device_current
	714	I(Vtemp1)	device_current
	715	Ix(u1:1)	subckt_current
	716	Ix(u1:2)	subckt_current
	717	Ix(u1:3)	subckt_current
	718	Ix(u1:4)	subckt_current
	719	Ix(u1:5)	subckt_current
	720	Ix(u2:1)	subckt_current
	721	Ix(u2:2)	subckt_current
	722	Ix(u2:3)	subckt_current
	723	Ix(u2:4)	subckt_current
	724	Ix(u2:5)	subckt_current
	725	Ix(u3:1)	subckt_current
	726	Ix(u3:2)	subckt_current
	727	Ix(u3:3)	subckt_current
	728	Ix(u3:4)	subckt_current
	729	Ix(u3:5)	subckt_current
	730	Ix(u4:1)	subckt_current
	731	Ix(u4:2)	subckt_current
	732	Ix(u4:3)	subckt_current
	733	Ix(u4:4)	subckt_current
	734	Ix(u4:5)	subckt_current
	735	Ix(u5:1)	subckt_current
	736	Ix(u5:2)	subckt_current
	737	Ix(u5:3)	subckt_current
	738	Ix(u5:4)	subckt_current
	739	Ix(u5:5)	subckt_current
	740	Ix(u6:1)	subckt_current
	741	Ix(u6:2)	subckt_current
	742	Ix(u6:3)	subckt_current
	743	Ix(u6:4)	subckt_current
	744	Ix(u6:5)	subckt_current
	745	Ix(u7:1)	subckt_current
	746	Ix(u7:2)	subckt_current
	747	Ix(u7:3)	subckt_current
	748	Ix(u7:4)	subckt_current
	749	Ix(u7:5)	subckt_current
	750	Ix(u8:1)	subckt_current
	751	Ix(u8:2)	subckt_current
	752	Ix(u8:3)	subckt_current
	753	Ix(u8:4)	subckt_current
	754	Ix(u8:5)	subckt_current
	755	Ix(u121:1)	subckt_current
	756	Ix(u121:2)	subckt_current
	757	Ix(u121:3)	subckt_current
	758	Ix(u121:4)	subckt_current
	759	Ix(u121:5)	subckt_current
	760	Ix(u122:1)	subckt_current
	761	Ix(u122:2)	subckt_current
	762	Ix(u122:3)	subckt_current
	763	Ix(u122:4)	subckt_current
	764	Ix(u122:5)	subckt_current
	765	Ix(u123:1)	subckt_current
	766	Ix(u123:2)	subckt_current
	767	Ix(u123:3)	subckt_current
	768	Ix(u123:4)	subckt_current
	769	Ix(u123:5)	subckt_current
	770	Ix(u9:1)	subckt_current
	771	Ix(u9:2)	subckt_current
	772	Ix(u9:3)	subckt_current
	773	Ix(u9:4)	subckt_current
	774	Ix(u9:5)	subckt_current
	775	Ix(u10:1)	subckt_current
	776	Ix(u10:2)	subckt_current
	777	Ix(u10:3)	subckt_current
	778	Ix(u10:4)	subckt_current
	779	Ix(u10:5)	subckt_current
	780	Ix(u11:1)	subckt_current
	781	Ix(u11:2)	subckt_current
	782	Ix(u11:3)	subckt_current
	783	Ix(u11:4)	subckt_current
	784	Ix(u11:5)	subckt_current
	785	Ix(u12:1)	subckt_current
	786	Ix(u12:2)	subckt_current
	787	Ix(u12:3)	subckt_current
	788	Ix(u12:4)	subckt_current
	789	Ix(u12:5)	subckt_current
	790	Ix(u13:1)	subckt_current
	791	Ix(u13:2)	subckt_current
	792	Ix(u13:3)	subckt_current
	793	Ix(u13:4)	subckt_current
	794	Ix(u13:5)	subckt_current
	795	Ix(u14:1)	subckt_current
	796	Ix(u14:2)	subckt_current
	797	Ix(u14:3)	subckt_current
	798	Ix(u14:4)	subckt_current
	799	Ix(u14:5)	subckt_current
	800	Ix(u15:1)	subckt_current
	801	Ix(u15:2)	subckt_current
	802	Ix(u15:3)	subckt_current
	803	Ix(u15:4)	subckt_current
	804	Ix(u15:5)	subckt_current
	805	Ix(u16:1)	subckt_current
	806	Ix(u16:2)	subckt_current
	807	Ix(u16:3)	subckt_current
	808	Ix(u16:4)	subckt_current
	809	Ix(u16:5)	subckt_current
	810	Ix(u17:1)	subckt_current
	811	Ix(u17:2)	subckt_current
	812	Ix(u17:3)	subckt_current
	813	Ix(u17:4)	subckt_current
	814	Ix(u17:5)	subckt_current
	815	Ix(u18:1)	subckt_current
	816	Ix(u18:2)	subckt_current
	817	Ix(u18:3)	subckt_current
	818	Ix(u18:4)	subckt_current
	819	Ix(u18:5)	subckt_current
	820	Ix(u19:1)	subckt_current
	821	Ix(u19:2)	subckt_current
	822	Ix(u19:3)	subckt_current
	823	Ix(u19:4)	subckt_current
	824	Ix(u19:5)	subckt_current
	825	Ix(u20:1)	subckt_current
	826	Ix(u20:2)	subckt_current
	827	Ix(u20:3)	subckt_current
	828	Ix(u20:4)	subckt_current
	829	Ix(u20:5)	subckt_current
	830	Ix(u21:1)	subckt_current
	831	Ix(u21:2)	subckt_current
	832	Ix(u21:3)	subckt_current
	833	Ix(u21:4)	subckt_current
	834	Ix(u21:5)	subckt_current
	835	Ix(u22:1)	subckt_current
	836	Ix(u22:2)	subckt_current
	837	Ix(u22:3)	subckt_current
	838	Ix(u22:4)	subckt_current
	839	Ix(u22:5)	subckt_current
	840	Ix(u23:1)	subckt_current
	841	Ix(u23:2)	subckt_current
	842	Ix(u23:3)	subckt_current
	843	Ix(u23:4)	subckt_current
	844	Ix(u23:5)	subckt_current
	845	Ix(u24:1)	subckt_current
	846	Ix(u24:2)	subckt_current
	847	Ix(u24:3)	subckt_current
	848	Ix(u24:4)	subckt_current
	849	Ix(u24:5)	subckt_current
	850	Ix(u25:1)	subckt_current
	851	Ix(u25:2)	subckt_current
	852	Ix(u25:3)	subckt_current
	853	Ix(u25:4)	subckt_current
	854	Ix(u25:5)	subckt_current
	855	Ix(u26:1)	subckt_current
	856	Ix(u26:2)	subckt_current
	857	Ix(u26:3)	subckt_current
	858	Ix(u26:4)	subckt_current
	859	Ix(u26:5)	subckt_current
	860	Ix(u27:1)	subckt_current
	861	Ix(u27:2)	subckt_current
	862	Ix(u27:3)	subckt_current
	863	Ix(u27:4)	subckt_current
	864	Ix(u27:5)	subckt_current
	865	Ix(u28:1)	subckt_current
	866	Ix(u28:2)	subckt_current
	867	Ix(u28:3)	subckt_current
	868	Ix(u28:4)	subckt_current
	869	Ix(u28:5)	subckt_current
	870	Ix(u29:1)	subckt_current
	871	Ix(u29:2)	subckt_current
	872	Ix(u29:3)	subckt_current
	873	Ix(u29:4)	subckt_current
	874	Ix(u29:5)	subckt_current
	875	Ix(u30:1)	subckt_current
	876	Ix(u30:2)	subckt_current
	877	Ix(u30:3)	subckt_current
	878	Ix(u30:4)	subckt_current
	879	Ix(u30:5)	subckt_current
	880	Ix(u31:1)	subckt_current
	881	Ix(u31:2)	subckt_current
	882	Ix(u31:3)	subckt_current
	883	Ix(u31:4)	subckt_current
	884	Ix(u31:5)	subckt_current
	885	Ix(u32:1)	subckt_current
	886	Ix(u32:2)	subckt_current
	887	Ix(u32:3)	subckt_current
	888	Ix(u32:4)	subckt_current
	889	Ix(u32:5)	subckt_current
	890	Ix(u33:1)	subckt_current
	891	Ix(u33:2)	subckt_current
	892	Ix(u33:3)	subckt_current
	893	Ix(u33:4)	subckt_current
	894	Ix(u33:5)	subckt_current
	895	Ix(u34:1)	subckt_current
	896	Ix(u34:2)	subckt_current
	897	Ix(u34:3)	subckt_current
	898	Ix(u34:4)	subckt_current
	899	Ix(u34:5)	subckt_current
	900	Ix(u35:1)	subckt_current
	901	Ix(u35:2)	subckt_current
	902	Ix(u35:3)	subckt_current
	903	Ix(u35:4)	subckt_current
	904	Ix(u35:5)	subckt_current
	905	Ix(u36:1)	subckt_current
	906	Ix(u36:2)	subckt_current
	907	Ix(u36:3)	subckt_current
	908	Ix(u36:4)	subckt_current
	909	Ix(u36:5)	subckt_current
	910	Ix(u65:1)	subckt_current
	911	Ix(u65:2)	subckt_current
	912	Ix(u65:3)	subckt_current
	913	Ix(u65:4)	subckt_current
	914	Ix(u65:5)	subckt_current
	915	Ix(u66:1)	subckt_current
	916	Ix(u66:2)	subckt_current
	917	Ix(u66:3)	subckt_current
	918	Ix(u66:4)	subckt_current
	919	Ix(u66:5)	subckt_current
	920	Ix(u67:1)	subckt_current
	921	Ix(u67:2)	subckt_current
	922	Ix(u67:3)	subckt_current
	923	Ix(u67:4)	subckt_current
	924	Ix(u67:5)	subckt_current
	925	Ix(u68:1)	subckt_current
	926	Ix(u68:2)	subckt_current
	927	Ix(u68:3)	subckt_current
	928	Ix(u68:4)	subckt_current
	929	Ix(u68:5)	subckt_current
	930	Ix(u69:1)	subckt_current
	931	Ix(u69:2)	subckt_current
	932	Ix(u69:3)	subckt_current
	933	Ix(u69:4)	subckt_current
	934	Ix(u69:5)	subckt_current
	935	Ix(u70:1)	subckt_current
	936	Ix(u70:2)	subckt_current
	937	Ix(u70:3)	subckt_current
	938	Ix(u70:4)	subckt_current
	939	Ix(u70:5)	subckt_current
	940	Ix(u71:1)	subckt_current
	941	Ix(u71:2)	subckt_current
	942	Ix(u71:3)	subckt_current
	943	Ix(u71:4)	subckt_current
	944	Ix(u71:5)	subckt_current
	945	Ix(u72:1)	subckt_current
	946	Ix(u72:2)	subckt_current
	947	Ix(u72:3)	subckt_current
	948	Ix(u72:4)	subckt_current
	949	Ix(u72:5)	subckt_current
	950	Ix(u73:1)	subckt_current
	951	Ix(u73:2)	subckt_current
	952	Ix(u73:3)	subckt_current
	953	Ix(u73:4)	subckt_current
	954	Ix(u73:5)	subckt_current
	955	Ix(u74:1)	subckt_current
	956	Ix(u74:2)	subckt_current
	957	Ix(u74:3)	subckt_current
	958	Ix(u74:4)	subckt_current
	959	Ix(u74:5)	subckt_current
	960	Ix(u75:1)	subckt_current
	961	Ix(u75:2)	subckt_current
	962	Ix(u75:3)	subckt_current
	963	Ix(u75:4)	subckt_current
	964	Ix(u75:5)	subckt_current
	965	Ix(u76:1)	subckt_current
	966	Ix(u76:2)	subckt_current
	967	Ix(u76:3)	subckt_current
	968	Ix(u76:4)	subckt_current
	969	Ix(u76:5)	subckt_current
	970	Ix(u77:1)	subckt_current
	971	Ix(u77:2)	subckt_current
	972	Ix(u77:3)	subckt_current
	973	Ix(u77:4)	subckt_current
	974	Ix(u77:5)	subckt_current
	975	Ix(u78:1)	subckt_current
	976	Ix(u78:2)	subckt_current
	977	Ix(u78:3)	subckt_current
	978	Ix(u78:4)	subckt_current
	979	Ix(u78:5)	subckt_current
	980	Ix(u79:1)	subckt_current
	981	Ix(u79:2)	subckt_current
	982	Ix(u79:3)	subckt_current
	983	Ix(u79:4)	subckt_current
	984	Ix(u79:5)	subckt_current
	985	Ix(u80:1)	subckt_current
	986	Ix(u80:2)	subckt_current
	987	Ix(u80:3)	subckt_current
	988	Ix(u80:4)	subckt_current
	989	Ix(u80:5)	subckt_current
	990	Ix(u81:1)	subckt_current
	991	Ix(u81:2)	subckt_current
	992	Ix(u81:3)	subckt_current
	993	Ix(u81:4)	subckt_current
	994	Ix(u81:5)	subckt_current
	995	Ix(u82:1)	subckt_current
	996	Ix(u82:2)	subckt_current
	997	Ix(u82:3)	subckt_current
	998	Ix(u82:4)	subckt_current
	999	Ix(u82:5)	subckt_current
	1000	Ix(u83:1)	subckt_current
	1001	Ix(u83:2)	subckt_current
	1002	Ix(u83:3)	subckt_current
	1003	Ix(u83:4)	subckt_current
	1004	Ix(u83:5)	subckt_current
	1005	Ix(u84:1)	subckt_current
	1006	Ix(u84:2)	subckt_current
	1007	Ix(u84:3)	subckt_current
	1008	Ix(u84:4)	subckt_current
	1009	Ix(u84:5)	subckt_current
	1010	Ix(u85:1)	subckt_current
	1011	Ix(u85:2)	subckt_current
	1012	Ix(u85:3)	subckt_current
	1013	Ix(u85:4)	subckt_current
	1014	Ix(u85:5)	subckt_current
	1015	Ix(u86:1)	subckt_current