Title: * C:\Users\Avi\Desktop\IEEGIT\TBioCAS2021\FIG5\8OZ\bounded\OZ_8_bounded_curves.asc
Date: Tue Apr 27 08:51:11 2021
Plotname: Operating Point
Flags: real
No. Variables: 1975
No. Points:            1
Offset:   0.0000000000000000e+000
Command: Linear Technology Corporation LTspice XVII
Backannotation: u1 1 2 3 4 5
Backannotation: u2 1 2 3 4 5
Backannotation: u3 1 2 3 4 5
Backannotation: u4 1 2 3 4 5
Backannotation: u5 1 2 3 4 5
Backannotation: u6 1 2 3 4 5
Backannotation: u7 1 2 3 4 5
Backannotation: u8 1 2 3 4 5
Backannotation: u121 1 2 3 4 5
Backannotation: u122 1 2 3 4 5
Backannotation: u123 1 2 3 4 5
Backannotation: u9 1 2 3 4 5
Backannotation: u10 1 2 3 4 5
Backannotation: u11 1 2 3 4 5
Backannotation: u12 1 2 3 4 5
Backannotation: u13 1 2 3 4 5
Backannotation: u14 1 2 3 4 5
Backannotation: u15 1 2 3 4 5
Backannotation: u16 1 2 3 4 5
Backannotation: u17 1 2 3 4 5
Backannotation: u18 1 2 3 4 5
Backannotation: u19 1 2 3 4 5
Backannotation: u20 1 2 3 4 5
Backannotation: u21 1 2 3 4 5
Backannotation: u22 1 2 3 4 5
Backannotation: u23 1 2 3 4 5
Backannotation: u24 1 2 3 4 5
Backannotation: u25 1 2 3 4 5
Backannotation: u26 1 2 3 4 5
Backannotation: u27 1 2 3 4 5
Backannotation: u28 1 2 3 4 5
Backannotation: u29 1 2 3 4 5
Backannotation: u30 1 2 3 4 5
Backannotation: u31 1 2 3 4 5
Backannotation: u32 1 2 3 4 5
Backannotation: u33 1 2 3 4 5
Backannotation: u34 1 2 3 4 5
Backannotation: u35 1 2 3 4 5
Backannotation: u36 1 2 3 4 5
Backannotation: u37 1 2 3 4 5
Backannotation: u38 1 2 3 4 5
Backannotation: u39 1 2 3 4 5
Backannotation: u40 1 2 3 4 5
Backannotation: u41 1 2 3 4 5
Backannotation: u42 1 2 3 4 5
Backannotation: u43 1 2 3 4 5
Backannotation: u44 1 2 3 4 5
Backannotation: u45 1 2 3 4 5
Backannotation: u46 1 2 3 4 5
Backannotation: u47 1 2 3 4 5
Backannotation: u48 1 2 3 4 5
Backannotation: u49 1 2 3 4 5
Backannotation: u50 1 2 3 4 5
Backannotation: u51 1 2 3 4 5
Backannotation: u52 1 2 3 4 5
Backannotation: u53 1 2 3 4 5
Backannotation: u54 1 2 3 4 5
Backannotation: u55 1 2 3 4 5
Backannotation: u56 1 2 3 4 5
Backannotation: u57 1 2 3 4 5
Backannotation: u58 1 2 3 4 5
Backannotation: u59 1 2 3 4 5
Backannotation: u60 1 2 3 4 5
Backannotation: u61 1 2 3 4 5
Backannotation: u62 1 2 3 4 5
Backannotation: u63 1 2 3 4 5
Backannotation: u64 1 2 3 4 5
Backannotation: u65 1 2 3 4 5
Backannotation: u66 1 2 3 4 5
Backannotation: u67 1 2 3 4 5
Backannotation: u68 1 2 3 4 5
Backannotation: u69 1 2 3 4 5
Backannotation: u70 1 2 3 4 5
Backannotation: u71 1 2 3 4 5
Backannotation: u72 1 2 3 4 5
Backannotation: u73 1 2 3 4 5
Backannotation: u74 1 2 3 4 5
Backannotation: u75 1 2 3 4 5
Backannotation: u76 1 2 3 4 5
Backannotation: u77 1 2 3 4 5
Backannotation: u78 1 2 3 4 5
Backannotation: u79 1 2 3 4 5
Backannotation: u80 1 2 3 4 5
Backannotation: u81 1 2 3 4 5
Backannotation: u82 1 2 3 4 5
Backannotation: u83 1 2 3 4 5
Backannotation: u84 1 2 3 4 5
Backannotation: u85 1 2 3 4 5
Backannotation: u86 1 2 3 4 5
Backannotation: u87 1 2 3 4 5
Backannotation: u88 1 2 3 4 5
Backannotation: u89 1 2 3 4 5
Backannotation: u90 1 2 3 4 5
Backannotation: u91 1 2 3 4 5
Backannotation: u92 1 2 3 4 5
Backannotation: u93 1 2 3 4 5
Backannotation: u94 1 2 3 4 5
Backannotation: u95 1 2 3 4 5
Backannotation: u96 1 2 3 4 5
Backannotation: u97 1 2 3 4 5
Backannotation: u98 1 2 3 4 5
Backannotation: u99 1 2 3 4 5
Backannotation: u100 1 2 3 4 5
Backannotation: u101 1 2 3 4 5
Backannotation: u102 1 2 3 4 5
Backannotation: u103 1 2 3 4 5
Backannotation: u104 1 2 3 4 5
Backannotation: u105 1 2 3 4 5
Backannotation: u106 1 2 3 4 5
Backannotation: u107 1 2 3 4 5
Backannotation: u108 1 2 3 4 5
Backannotation: u109 1 2 3 4 5
Backannotation: u110 1 2 3 4 5
Backannotation: u111 1 2 3 4 5
Backannotation: u112 1 2 3 4 5
Backannotation: u113 1 2 3 4 5
Backannotation: u114 1 2 3 4 5
Backannotation: u115 1 2 3 4 5
Backannotation: u116 1 2 3 4 5
Backannotation: u117 1 2 3 4 5
Backannotation: u118 1 2 3 4 5
Backannotation: u119 1 2 3 4 5
Backannotation: u120 1 2 3 4 5
Backannotation: u124 1 2 3 4 5
Backannotation: u125 1 2 3 4 5
Backannotation: u126 1 2 3 4 5
Variables:
	0	V(vint)	voltage
	1	V(vdd)	voltage
	2	V(vss-)	voltage
	3	V(vss+)	voltage
	4	V(voffset)	voltage
	5	V(vref)	voltage
	6	V(vw)	voltage
	7	V(vgnd)	voltage
	8	V(n009)	voltage
	9	V(n010)	voltage
	10	V(n015)	voltage
	11	V(n011)	voltage
	12	V(n012)	voltage
	13	V(n013)	voltage
	14	V(n014)	voltage
	15	V(n018)	voltage
	16	V(n019)	voltage
	17	V(n021)	voltage
	18	V(n022)	voltage
	19	V(vin)	voltage
	20	V(vpos)	voltage
	21	V(vneg)	voltage
	22	V(n005)	voltage
	23	V(n002)	voltage
	24	V(spikes1)	voltage
	25	V(n001)	voltage
	26	V(n007)	voltage
	27	V(v0)	voltage
	28	V(vout1)	voltage
	29	V(n026)	voltage
	30	V(n024)	voltage
	31	V(spikes2)	voltage
	32	V(n020)	voltage
	33	V(n028)	voltage
	34	V(v1)	voltage
	35	V(vout2)	voltage
	36	V(n037)	voltage
	37	V(n032)	voltage
	38	V(spikes3)	voltage
	39	V(n030)	voltage
	40	V(n040)	voltage
	41	V(v2)	voltage
	42	V(vout3)	voltage
	43	V(n052)	voltage
	44	V(n050)	voltage
	45	V(spikes4)	voltage
	46	V(n048)	voltage
	47	V(n054)	voltage
	48	V(v3)	voltage
	49	V(vout4)	voltage
	50	V(n006)	voltage
	51	V(n004)	voltage
	52	V(spikes5)	voltage
	53	V(n003)	voltage
	54	V(n008)	voltage
	55	V(vout5)	voltage
	56	V(n025)	voltage
	57	V(n023)	voltage
	58	V(spikes6)	voltage
	59	V(n016)	voltage
	60	V(n027)	voltage
	61	V(vout6)	voltage
	62	V(n036)	voltage
	63	V(n031)	voltage
	64	V(spikes7)	voltage
	65	V(n029)	voltage
	66	V(n039)	voltage
	67	V(vout7)	voltage
	68	V(n051)	voltage
	69	V(n049)	voltage
	70	V(spikes8)	voltage
	71	V(n047)	voltage
	72	V(n053)	voltage
	73	V(vout8)	voltage
	74	V(v4)	voltage
	75	V(vout)	voltage
	76	V(n035)	voltage
	77	V(n017)	voltage
	78	V(n033)	voltage
	79	V(n034)	voltage
	80	V(t1)	voltage
	81	V(t2)	voltage
	82	V(t3)	voltage
	83	V(t4)	voltage
	84	V(t5)	voltage
	85	V(t6)	voltage
	86	V(t7)	voltage
	87	V(t8)	voltage
	88	V(n113)	voltage
	89	V(wc)	voltage
	90	V(n088)	voltage
	91	V(n096)	voltage
	92	V(n097)	voltage
	93	V(n067)	voltage
	94	V(n106)	voltage
	95	V(n087)	voltage
	96	V(n056)	voltage
	97	V(n060)	voltage
	98	V(n085)	voltage
	99	V(n086)	voltage
	100	V(errorsig)	voltage
	101	V(n064)	voltage
	102	V(n062)	voltage
	103	V(n061)	voltage
	104	V(n055)	voltage
	105	V(n104)	voltage
	106	V(n058)	voltage
	107	V(n105)	voltage
	108	V(n065)	voltage
	109	V(n059)	voltage
	110	V(n068)	voltage
	111	V(n098)	voltage
	112	V(n066)	voltage
	113	V(n107)	voltage
	114	V(n073)	voltage
	115	V(n070)	voltage
	116	V(n069)	voltage
	117	V(n117)	voltage
	118	V(n071)	voltage
	119	V(n118)	voltage
	120	V(n074)	voltage
	121	V(n072)	voltage
	122	V(n077)	voltage
	123	V(n108)	voltage
	124	V(n078)	voltage
	125	V(n079)	voltage
	126	V(n185)	voltage
	127	V(n160)	voltage
	128	V(n168)	voltage
	129	V(n169)	voltage
	130	V(n139)	voltage
	131	V(n178)	voltage
	132	V(n159)	voltage
	133	V(n128)	voltage
	134	V(n132)	voltage
	135	V(n157)	voltage
	136	V(n158)	voltage
	137	V(n136)	voltage
	138	V(n134)	voltage
	139	V(n133)	voltage
	140	V(n127)	voltage
	141	V(n176)	voltage
	142	V(n130)	voltage
	143	V(n177)	voltage
	144	V(n137)	voltage
	145	V(n131)	voltage
	146	V(n140)	voltage
	147	V(n170)	voltage
	148	V(n138)	voltage
	149	V(n179)	voltage
	150	V(n145)	voltage
	151	V(n142)	voltage
	152	V(n141)	voltage
	153	V(n189)	voltage
	154	V(n143)	voltage
	155	V(n190)	voltage
	156	V(n146)	voltage
	157	V(n144)	voltage
	158	V(n149)	voltage
	159	V(n180)	voltage
	160	V(n150)	voltage
	161	V(n151)	voltage
	162	V(n257)	voltage
	163	V(n232)	voltage
	164	V(n240)	voltage
	165	V(n241)	voltage
	166	V(n211)	voltage
	167	V(n250)	voltage
	168	V(n231)	voltage
	169	V(n200)	voltage
	170	V(n204)	voltage
	171	V(n229)	voltage
	172	V(n230)	voltage
	173	V(n208)	voltage
	174	V(n206)	voltage
	175	V(n205)	voltage
	176	V(n199)	voltage
	177	V(n248)	voltage
	178	V(n202)	voltage
	179	V(n249)	voltage
	180	V(n209)	voltage
	181	V(n203)	voltage
	182	V(n212)	voltage
	183	V(n242)	voltage
	184	V(n210)	voltage
	185	V(n251)	voltage
	186	V(n217)	voltage
	187	V(n214)	voltage
	188	V(n213)	voltage
	189	V(n261)	voltage
	190	V(n215)	voltage
	191	V(n262)	voltage
	192	V(n218)	voltage
	193	V(n216)	voltage
	194	V(n221)	voltage
	195	V(n252)	voltage
	196	V(n222)	voltage
	197	V(n223)	voltage
	198	V(n329)	voltage
	199	V(n304)	voltage
	200	V(n312)	voltage
	201	V(n313)	voltage
	202	V(n283)	voltage
	203	V(n322)	voltage
	204	V(n303)	voltage
	205	V(n272)	voltage
	206	V(n276)	voltage
	207	V(n301)	voltage
	208	V(n302)	voltage
	209	V(n280)	voltage
	210	V(n278)	voltage
	211	V(n277)	voltage
	212	V(n271)	voltage
	213	V(n320)	voltage
	214	V(n274)	voltage
	215	V(n321)	voltage
	216	V(n281)	voltage
	217	V(n275)	voltage
	218	V(n284)	voltage
	219	V(n314)	voltage
	220	V(n282)	voltage
	221	V(n323)	voltage
	222	V(n289)	voltage
	223	V(n286)	voltage
	224	V(n285)	voltage
	225	V(n333)	voltage
	226	V(n287)	voltage
	227	V(n334)	voltage
	228	V(n290)	voltage
	229	V(n288)	voltage
	230	V(n293)	voltage
	231	V(n324)	voltage
	232	V(n294)	voltage
	233	V(n295)	voltage
	234	V(n124)	voltage
	235	V(n112)	voltage
	236	V(n114)	voltage
	237	V(n115)	voltage
	238	V(n090)	voltage
	239	V(n121)	voltage
	240	V(n111)	voltage
	241	V(n063)	voltage
	242	V(n080)	voltage
	243	V(n109)	voltage
	244	V(n110)	voltage
	245	V(n083)	voltage
	246	V(n082)	voltage
	247	V(n081)	voltage
	248	V(n057)	voltage
	249	V(n119)	voltage
	250	V(n075)	voltage
	251	V(n120)	voltage
	252	V(n084)	voltage
	253	V(n076)	voltage
	254	V(n091)	voltage
	255	V(n116)	voltage
	256	V(n089)	voltage
	257	V(n122)	voltage
	258	V(n099)	voltage
	259	V(n093)	voltage
	260	V(n092)	voltage
	261	V(n125)	voltage
	262	V(n094)	voltage
	263	V(n126)	voltage
	264	V(n100)	voltage
	265	V(n095)	voltage
	266	V(n101)	voltage
	267	V(n123)	voltage
	268	V(n102)	voltage
	269	V(n103)	voltage
	270	V(n196)	voltage
	271	V(n184)	voltage
	272	V(n186)	voltage
	273	V(n187)	voltage
	274	V(n162)	voltage
	275	V(n193)	voltage
	276	V(n183)	voltage
	277	V(n135)	voltage
	278	V(n152)	voltage
	279	V(n181)	voltage
	280	V(n182)	voltage
	281	V(n155)	voltage
	282	V(n154)	voltage
	283	V(n153)	voltage
	284	V(n129)	voltage
	285	V(n191)	voltage
	286	V(n147)	voltage
	287	V(n192)	voltage
	288	V(n156)	voltage
	289	V(n148)	voltage
	290	V(n163)	voltage
	291	V(n188)	voltage
	292	V(n161)	voltage
	293	V(n194)	voltage
	294	V(n171)	voltage
	295	V(n165)	voltage
	296	V(n164)	voltage
	297	V(n197)	voltage
	298	V(n166)	voltage
	299	V(n198)	voltage
	300	V(n172)	voltage
	301	V(n167)	voltage
	302	V(n173)	voltage
	303	V(n195)	voltage
	304	V(n174)	voltage
	305	V(n175)	voltage
	306	V(n268)	voltage
	307	V(n256)	voltage
	308	V(n258)	voltage
	309	V(n259)	voltage
	310	V(n234)	voltage
	311	V(n265)	voltage
	312	V(n255)	voltage
	313	V(n207)	voltage
	314	V(n224)	voltage
	315	V(n253)	voltage
	316	V(n254)	voltage
	317	V(n227)	voltage
	318	V(n226)	voltage
	319	V(n225)	voltage
	320	V(n201)	voltage
	321	V(n263)	voltage
	322	V(n219)	voltage
	323	V(n264)	voltage
	324	V(n228)	voltage
	325	V(n220)	voltage
	326	V(n235)	voltage
	327	V(n260)	voltage
	328	V(n233)	voltage
	329	V(n266)	voltage
	330	V(n243)	voltage
	331	V(n237)	voltage
	332	V(n236)	voltage
	333	V(n269)	voltage
	334	V(n238)	voltage
	335	V(n270)	voltage
	336	V(n244)	voltage
	337	V(n239)	voltage
	338	V(n245)	voltage
	339	V(n267)	voltage
	340	V(n246)	voltage
	341	V(n247)	voltage
	342	V(n340)	voltage
	343	V(n328)	voltage
	344	V(n330)	voltage
	345	V(n331)	voltage
	346	V(n306)	voltage
	347	V(n337)	voltage
	348	V(n327)	voltage
	349	V(n279)	voltage
	350	V(n296)	voltage
	351	V(n325)	voltage
	352	V(n326)	voltage
	353	V(n299)	voltage
	354	V(n298)	voltage
	355	V(n297)	voltage
	356	V(n273)	voltage
	357	V(n335)	voltage
	358	V(n291)	voltage
	359	V(n336)	voltage
	360	V(n300)	voltage
	361	V(n292)	voltage
	362	V(n307)	voltage
	363	V(n332)	voltage
	364	V(n305)	voltage
	365	V(n338)	voltage
	366	V(n315)	voltage
	367	V(n309)	voltage
	368	V(n308)	voltage
	369	V(n341)	voltage
	370	V(n310)	voltage
	371	V(n342)	voltage
	372	V(n316)	voltage
	373	V(n311)	voltage
	374	V(n317)	voltage
	375	V(n339)	voltage
	376	V(n318)	voltage
	377	V(n319)	voltage
	378	V(n041)	voltage
	379	V(n045)	voltage
	380	V(n042)	voltage
	381	V(n044)	voltage
	382	V(n043)	voltage
	383	V(n046)	voltage
	384	V(n038)	voltage
	385	I(B1)	device_current
	386	Id(M24)	device_current
	387	Ig(M24)	device_current
	388	Ib(M24)	device_current
	389	Is(M24)	device_current
	390	Id(M23)	device_current
	391	Ig(M23)	device_current
	392	Ib(M23)	device_current
	393	Is(M23)	device_current
	394	Id(M22)	device_current
	395	Ig(M22)	device_current
	396	Ib(M22)	device_current
	397	Is(M22)	device_current
	398	Id(M21)	device_current
	399	Ig(M21)	device_current
	400	Ib(M21)	device_current
	401	Is(M21)	device_current
	402	Id(M20)	device_current
	403	Ig(M20)	device_current
	404	Ib(M20)	device_current
	405	Is(M20)	device_current
	406	Id(M19)	device_current
	407	Ig(M19)	device_current
	408	Ib(M19)	device_current
	409	Is(M19)	device_current
	410	Id(M18)	device_current
	411	Ig(M18)	device_current
	412	Ib(M18)	device_current
	413	Is(M18)	device_current
	414	Id(M17)	device_current
	415	Ig(M17)	device_current
	416	Ib(M17)	device_current
	417	Is(M17)	device_current
	418	Id(M16)	device_current
	419	Ig(M16)	device_current
	420	Ib(M16)	device_current
	421	Is(M16)	device_current
	422	Id(M15)	device_current
	423	Ig(M15)	device_current
	424	Ib(M15)	device_current
	425	Is(M15)	device_current
	426	Id(Mnnot16)	device_current
	427	Ig(Mnnot16)	device_current
	428	Ib(Mnnot16)	device_current
	429	Is(Mnnot16)	device_current
	430	Id(Mvlk8)	device_current
	431	Ig(Mvlk8)	device_current
	432	Ib(Mvlk8)	device_current
	433	Is(Mvlk8)	device_current
	434	Id(Mref8)	device_current
	435	Ig(Mref8)	device_current
	436	Ib(Mref8)	device_current
	437	Is(Mref8)	device_current
	438	Id(Mvref8)	device_current
	439	Ig(Mvref8)	device_current
	440	Ib(Mvref8)	device_current
	441	Is(Mvref8)	device_current
	442	Id(Mnnot15)	device_current
	443	Ig(Mnnot15)	device_current
	444	Ib(Mnnot15)	device_current
	445	Is(Mnnot15)	device_current
	446	Id(M14)	device_current
	447	Ig(M14)	device_current
	448	Ib(M14)	device_current
	449	Is(M14)	device_current
	450	Id(M13)	device_current
	451	Ig(M13)	device_current
	452	Ib(M13)	device_current
	453	Is(M13)	device_current
	454	Id(Mnnot14)	device_current
	455	Ig(Mnnot14)	device_current
	456	Ib(Mnnot14)	device_current
	457	Is(Mnnot14)	device_current
	458	Id(Mvlk7)	device_current
	459	Ig(Mvlk7)	device_current
	460	Ib(Mvlk7)	device_current
	461	Is(Mvlk7)	device_current
	462	Id(Mref7)	device_current
	463	Ig(Mref7)	device_current
	464	Ib(Mref7)	device_current
	465	Is(Mref7)	device_current
	466	Id(Mvref7)	device_current
	467	Ig(Mvref7)	device_current
	468	Ib(Mvref7)	device_current
	469	Is(Mvref7)	device_current
	470	Id(Mnnot13)	device_current
	471	Ig(Mnnot13)	device_current
	472	Ib(Mnnot13)	device_current
	473	Is(Mnnot13)	device_current
	474	Id(M12)	device_current
	475	Ig(M12)	device_current
	476	Ib(M12)	device_current
	477	Is(M12)	device_current
	478	Id(M11)	device_current
	479	Ig(M11)	device_current
	480	Ib(M11)	device_current
	481	Is(M11)	device_current
	482	Id(Mnnot12)	device_current
	483	Ig(Mnnot12)	device_current
	484	Ib(Mnnot12)	device_current
	485	Is(Mnnot12)	device_current
	486	Id(Mvlk6)	device_current
	487	Ig(Mvlk6)	device_current
	488	Ib(Mvlk6)	device_current
	489	Is(Mvlk6)	device_current
	490	Id(Mref6)	device_current
	491	Ig(Mref6)	device_current
	492	Ib(Mref6)	device_current
	493	Is(Mref6)	device_current
	494	Id(Mvref6)	device_current
	495	Ig(Mvref6)	device_current
	496	Ib(Mvref6)	device_current
	497	Is(Mvref6)	device_current
	498	Id(Mnnot11)	device_current
	499	Ig(Mnnot11)	device_current
	500	Ib(Mnnot11)	device_current
	501	Is(Mnnot11)	device_current
	502	Id(M10)	device_current
	503	Ig(M10)	device_current
	504	Ib(M10)	device_current
	505	Is(M10)	device_current
	506	Id(M9)	device_current
	507	Ig(M9)	device_current
	508	Ib(M9)	device_current
	509	Is(M9)	device_current
	510	Id(Mnnot10)	device_current
	511	Ig(Mnnot10)	device_current
	512	Ib(Mnnot10)	device_current
	513	Is(Mnnot10)	device_current
	514	Id(Mvlk5)	device_current
	515	Ig(Mvlk5)	device_current
	516	Ib(Mvlk5)	device_current
	517	Is(Mvlk5)	device_current
	518	Id(Mref5)	device_current
	519	Ig(Mref5)	device_current
	520	Ib(Mref5)	device_current
	521	Is(Mref5)	device_current
	522	Id(Mvref5)	device_current
	523	Ig(Mvref5)	device_current
	524	Ib(Mvref5)	device_current
	525	Is(Mvref5)	device_current
	526	Id(Mnnot9)	device_current
	527	Ig(Mnnot9)	device_current
	528	Ib(Mnnot9)	device_current
	529	Is(Mnnot9)	device_current
	530	Id(M8)	device_current
	531	Ig(M8)	device_current
	532	Ib(M8)	device_current
	533	Is(M8)	device_current
	534	Id(M7)	device_current
	535	Ig(M7)	device_current
	536	Ib(M7)	device_current
	537	Is(M7)	device_current
	538	Id(Mnnot8)	device_current
	539	Ig(Mnnot8)	device_current
	540	Ib(Mnnot8)	device_current
	541	Is(Mnnot8)	device_current
	542	Id(Mvlk4)	device_current
	543	Ig(Mvlk4)	device_current
	544	Ib(Mvlk4)	device_current
	545	Is(Mvlk4)	device_current
	546	Id(Mref4)	device_current
	547	Ig(Mref4)	device_current
	548	Ib(Mref4)	device_current
	549	Is(Mref4)	device_current
	550	Id(Mvref4)	device_current
	551	Ig(Mvref4)	device_current
	552	Ib(Mvref4)	device_current
	553	Is(Mvref4)	device_current
	554	Id(Mnnot7)	device_current
	555	Ig(Mnnot7)	device_current
	556	Ib(Mnnot7)	device_current
	557	Is(Mnnot7)	device_current
	558	Id(M6)	device_current
	559	Ig(M6)	device_current
	560	Ib(M6)	device_current
	561	Is(M6)	device_current
	562	Id(M5)	device_current
	563	Ig(M5)	device_current
	564	Ib(M5)	device_current
	565	Is(M5)	device_current
	566	Id(Mnnot6)	device_current
	567	Ig(Mnnot6)	device_current
	568	Ib(Mnnot6)	device_current
	569	Is(Mnnot6)	device_current
	570	Id(Mvlk3)	device_current
	571	Ig(Mvlk3)	device_current
	572	Ib(Mvlk3)	device_current
	573	Is(Mvlk3)	device_current
	574	Id(Mref3)	device_current
	575	Ig(Mref3)	device_current
	576	Ib(Mref3)	device_current
	577	Is(Mref3)	device_current
	578	Id(Mvref3)	device_current
	579	Ig(Mvref3)	device_current
	580	Ib(Mvref3)	device_current
	581	Is(Mvref3)	device_current
	582	Id(Mnnot5)	device_current
	583	Ig(Mnnot5)	device_current
	584	Ib(Mnnot5)	device_current
	585	Is(Mnnot5)	device_current
	586	Id(M4)	device_current
	587	Ig(M4)	device_current
	588	Ib(M4)	device_current
	589	Is(M4)	device_current
	590	Id(M3)	device_current
	591	Ig(M3)	device_current
	592	Ib(M3)	device_current
	593	Is(M3)	device_current
	594	Id(Mnnot4)	device_current
	595	Ig(Mnnot4)	device_current
	596	Ib(Mnnot4)	device_current
	597	Is(Mnnot4)	device_current
	598	Id(Mvlk2)	device_current
	599	Ig(Mvlk2)	device_current
	600	Ib(Mvlk2)	device_current
	601	Is(Mvlk2)	device_current
	602	Id(Mref2)	device_current
	603	Ig(Mref2)	device_current
	604	Ib(Mref2)	device_current
	605	Is(Mref2)	device_current
	606	Id(Mvref2)	device_current
	607	Ig(Mvref2)	device_current
	608	Ib(Mvref2)	device_current
	609	Is(Mvref2)	device_current
	610	Id(Mnnot3)	device_current
	611	Ig(Mnnot3)	device_current
	612	Ib(Mnnot3)	device_current
	613	Is(Mnnot3)	device_current
	614	Id(M2)	device_current
	615	Ig(M2)	device_current
	616	Ib(M2)	device_current
	617	Is(M2)	device_current
	618	Id(M1)	device_current
	619	Ig(M1)	device_current
	620	Ib(M1)	device_current
	621	Is(M1)	device_current
	622	Id(Mnnot2)	device_current
	623	Ig(Mnnot2)	device_current
	624	Ib(Mnnot2)	device_current
	625	Is(Mnnot2)	device_current
	626	Id(Mvlk1)	device_current
	627	Ig(Mvlk1)	device_current
	628	Ib(Mvlk1)	device_current
	629	Is(Mvlk1)	device_current
	630	Id(Mref1)	device_current
	631	Ig(Mref1)	device_current
	632	Ib(Mref1)	device_current
	633	Is(Mref1)	device_current
	634	Id(Mvref1)	device_current
	635	Ig(Mvref1)	device_current
	636	Ib(Mvref1)	device_current
	637	Is(Mvref1)	device_current
	638	Id(Mnnot1)	device_current
	639	Ig(Mnnot1)	device_current
	640	Ib(Mnnot1)	device_current
	641	Is(Mnnot1)	device_current
	642	Id(Mpnot16)	device_current
	643	Ig(Mpnot16)	device_current
	644	Ib(Mpnot16)	device_current
	645	Is(Mpnot16)	device_current
	646	Id(Min8)	device_current
	647	Ig(Min8)	device_current
	648	Ib(Min8)	device_current
	649	Is(Min8)	device_current
	650	Id(Mina8)	device_current
	651	Ig(Mina8)	device_current
	652	Ib(Mina8)	device_current
	653	Is(Mina8)	device_current
	654	Id(Mpnot15)	device_current
	655	Ig(Mpnot15)	device_current
	656	Ib(Mpnot15)	device_current
	657	Is(Mpnot15)	device_current
	658	Id(Mw8)	device_current
	659	Ig(Mw8)	device_current
	660	Ib(Mw8)	device_current
	661	Is(Mw8)	device_current
	662	Id(Mpnot14)	device_current
	663	Ig(Mpnot14)	device_current
	664	Ib(Mpnot14)	device_current
	665	Is(Mpnot14)	device_current
	666	Id(Min7)	device_current
	667	Ig(Min7)	device_current
	668	Ib(Min7)	device_current
	669	Is(Min7)	device_current
	670	Id(Mina7)	device_current
	671	Ig(Mina7)	device_current
	672	Ib(Mina7)	device_current
	673	Is(Mina7)	device_current
	674	Id(Mpnot13)	device_current
	675	Ig(Mpnot13)	device_current
	676	Ib(Mpnot13)	device_current
	677	Is(Mpnot13)	device_current
	678	Id(Mw7)	device_current
	679	Ig(Mw7)	device_current
	680	Ib(Mw7)	device_current
	681	Is(Mw7)	device_current
	682	Id(Mpnot12)	device_current
	683	Ig(Mpnot12)	device_current
	684	Ib(Mpnot12)	device_current
	685	Is(Mpnot12)	device_current
	686	Id(Min6)	device_current
	687	Ig(Min6)	device_current
	688	Ib(Min6)	device_current
	689	Is(Min6)	device_current
	690	Id(Mina6)	device_current
	691	Ig(Mina6)	device_current
	692	Ib(Mina6)	device_current
	693	Is(Mina6)	device_current
	694	Id(Mpnot11)	device_current
	695	Ig(Mpnot11)	device_current
	696	Ib(Mpnot11)	device_current
	697	Is(Mpnot11)	device_current
	698	Id(Mw6)	device_current
	699	Ig(Mw6)	device_current
	700	Ib(Mw6)	device_current
	701	Is(Mw6)	device_current
	702	Id(Mpnot10)	device_current
	703	Ig(Mpnot10)	device_current
	704	Ib(Mpnot10)	device_current
	705	Is(Mpnot10)	device_current
	706	Id(Min5)	device_current
	707	Ig(Min5)	device_current
	708	Ib(Min5)	device_current
	709	Is(Min5)	device_current
	710	Id(Mina5)	device_current
	711	Ig(Mina5)	device_current
	712	Ib(Mina5)	device_current
	713	Is(Mina5)	device_current
	714	Id(Mpnot9)	device_current
	715	Ig(Mpnot9)	device_current
	716	Ib(Mpnot9)	device_current
	717	Is(Mpnot9)	device_current
	718	Id(Mw5)	device_current
	719	Ig(Mw5)	device_current
	720	Ib(Mw5)	device_current
	721	Is(Mw5)	device_current
	722	Id(Mpnot8)	device_current
	723	Ig(Mpnot8)	device_current
	724	Ib(Mpnot8)	device_current
	725	Is(Mpnot8)	device_current
	726	Id(Min4)	device_current
	727	Ig(Min4)	device_current
	728	Ib(Min4)	device_current
	729	Is(Min4)	device_current
	730	Id(Mina4)	device_current
	731	Ig(Mina4)	device_current
	732	Ib(Mina4)	device_current
	733	Is(Mina4)	device_current
	734	Id(Mpnot7)	device_current
	735	Ig(Mpnot7)	device_current
	736	Ib(Mpnot7)	device_current
	737	Is(Mpnot7)	device_current
	738	Id(Mw4)	device_current
	739	Ig(Mw4)	device_current
	740	Ib(Mw4)	device_current
	741	Is(Mw4)	device_current
	742	Id(Mpnot6)	device_current
	743	Ig(Mpnot6)	device_current
	744	Ib(Mpnot6)	device_current
	745	Is(Mpnot6)	device_current
	746	Id(Min3)	device_current
	747	Ig(Min3)	device_current
	748	Ib(Min3)	device_current
	749	Is(Min3)	device_current
	750	Id(Mina3)	device_current
	751	Ig(Mina3)	device_current
	752	Ib(Mina3)	device_current
	753	Is(Mina3)	device_current
	754	Id(Mpnot5)	device_current
	755	Ig(Mpnot5)	device_current
	756	Ib(Mpnot5)	device_current
	757	Is(Mpnot5)	device_current
	758	Id(Mw3)	device_current
	759	Ig(Mw3)	device_current
	760	Ib(Mw3)	device_current
	761	Is(Mw3)	device_current
	762	Id(Mpnot4)	device_current
	763	Ig(Mpnot4)	device_current
	764	Ib(Mpnot4)	device_current
	765	Is(Mpnot4)	device_current
	766	Id(Min2)	device_current
	767	Ig(Min2)	device_current
	768	Ib(Min2)	device_current
	769	Is(Min2)	device_current
	770	Id(Mina2)	device_current
	771	Ig(Mina2)	device_current
	772	Ib(Mina2)	device_current
	773	Is(Mina2)	device_current
	774	Id(Mpnot3)	device_current
	775	Ig(Mpnot3)	device_current
	776	Ib(Mpnot3)	device_current
	777	Is(Mpnot3)	device_current
	778	Id(Mw2)	device_current
	779	Ig(Mw2)	device_current
	780	Ib(Mw2)	device_current
	781	Is(Mw2)	device_current
	782	Id(Mpnot2)	device_current
	783	Ig(Mpnot2)	device_current
	784	Ib(Mpnot2)	device_current
	785	Is(Mpnot2)	device_current
	786	Id(Min1)	device_current
	787	Ig(Min1)	device_current
	788	Ib(Min1)	device_current
	789	Is(Min1)	device_current
	790	Id(Mina1)	device_current
	791	Ig(Mina1)	device_current
	792	Ib(Mina1)	device_current
	793	Is(Mina1)	device_current
	794	Id(Mpnot1)	device_current
	795	Ig(Mpnot1)	device_current
	796	Ib(Mpnot1)	device_current
	797	Is(Mpnot1)	device_current
	798	Id(Mw1)	device_current
	799	Ig(Mw1)	device_current
	800	Ib(Mw1)	device_current
	801	Is(Mw1)	device_current
	802	I(C9)	device_current
	803	I(C8)	device_current
	804	I(C7)	device_current
	805	I(C6)	device_current
	806	I(C5)	device_current
	807	I(C4)	device_current
	808	I(C3)	device_current
	809	I(C2)	device_current
	810	I(C1)	device_current
	811	I(Cint8)	device_current
	812	I(Ck8)	device_current
	813	I(Csyn8)	device_current
	814	I(Cint7)	device_current
	815	I(Ck7)	device_current
	816	I(Csyn7)	device_current
	817	I(Cint6)	device_current
	818	I(Ck6)	device_current
	819	I(Csyn6)	device_current
	820	I(Cint5)	device_current
	821	I(Ck5)	device_current
	822	I(Csyn5)	device_current
	823	I(Cint4)	device_current
	824	I(Ck4)	device_current
	825	I(Csyn4)	device_current
	826	I(Cint3)	device_current
	827	I(Ck3)	device_current
	828	I(Csyn3)	device_current
	829	I(Cint2)	device_current
	830	I(Ck2)	device_current
	831	I(Csyn2)	device_current
	832	I(Cint1)	device_current
	833	I(Ck1)	device_current
	834	I(Csyn1)	device_current
	835	I(D128)	device_current
	836	I(D127)	device_current
	837	I(D126)	device_current
	838	I(D125)	device_current
	839	I(D124)	device_current
	840	I(D123)	device_current
	841	I(D122)	device_current
	842	I(D121)	device_current
	843	I(D120)	device_current
	844	I(D119)	device_current
	845	I(D118)	device_current
	846	I(D117)	device_current
	847	I(D116)	device_current
	848	I(D115)	device_current
	849	I(D114)	device_current
	850	I(D113)	device_current
	851	I(D112)	device_current
	852	I(D111)	device_current
	853	I(D110)	device_current
	854	I(D109)	device_current
	855	I(D108)	device_current
	856	I(D107)	device_current
	857	I(D106)	device_current
	858	I(D105)	device_current
	859	I(D104)	device_current
	860	I(D103)	device_current
	861	I(D102)	device_current
	862	I(D101)	device_current
	863	I(D100)	device_current
	864	I(D99)	device_current
	865	I(D98)	device_current
	866	I(D97)	device_current
	867	I(D96)	device_current
	868	I(D95)	device_current
	869	I(D94)	device_current
	870	I(D93)	device_current
	871	I(D92)	device_current
	872	I(D91)	device_current
	873	I(D90)	device_current
	874	I(D89)	device_current
	875	I(D88)	device_current
	876	I(D87)	device_current
	877	I(D86)	device_current
	878	I(D85)	device_current
	879	I(D84)	device_current
	880	I(D83)	device_current
	881	I(D82)	device_current
	882	I(D81)	device_current
	883	I(D80)	device_current
	884	I(D79)	device_current
	885	I(D78)	device_current
	886	I(D77)	device_current
	887	I(D76)	device_current
	888	I(D75)	device_current
	889	I(D74)	device_current
	890	I(D73)	device_current
	891	I(D72)	device_current
	892	I(D71)	device_current
	893	I(D70)	device_current
	894	I(D69)	device_current
	895	I(D68)	device_current
	896	I(D67)	device_current
	897	I(D66)	device_current
	898	I(D65)	device_current
	899	I(D64)	device_current
	900	I(D63)	device_current
	901	I(D62)	device_current
	902	I(D61)	device_current
	903	I(D60)	device_current
	904	I(D59)	device_current
	905	I(D58)	device_current
	906	I(D57)	device_current
	907	I(D56)	device_current
	908	I(D55)	device_current
	909	I(D54)	device_current
	910	I(D53)	device_current
	911	I(D52)	device_current
	912	I(D51)	device_current
	913	I(D50)	device_current
	914	I(D49)	device_current
	915	I(D48)	device_current
	916	I(D47)	device_current
	917	I(D46)	device_current
	918	I(D45)	device_current
	919	I(D44)	device_current
	920	I(D43)	device_current
	921	I(D42)	device_current
	922	I(D41)	device_current
	923	I(D40)	device_current
	924	I(D39)	device_current
	925	I(D38)	device_current
	926	I(D37)	device_current
	927	I(D36)	device_current
	928	I(D35)	device_current
	929	I(D34)	device_current
	930	I(D33)	device_current
	931	I(D32)	device_current
	932	I(D31)	device_current
	933	I(D30)	device_current
	934	I(D29)	device_current
	935	I(D28)	device_current
	936	I(D27)	device_current
	937	I(D26)	device_current
	938	I(D25)	device_current
	939	I(D24)	device_current
	940	I(D23)	device_current
	941	I(D22)	device_current
	942	I(D21)	device_current
	943	I(D20)	device_current
	944	I(D19)	device_current
	945	I(D18)	device_current
	946	I(D17)	device_current
	947	I(D16)	device_current
	948	I(D15)	device_current
	949	I(D14)	device_current
	950	I(D13)	device_current
	951	I(D12)	device_current
	952	I(D11)	device_current
	953	I(D10)	device_current
	954	I(D9)	device_current
	955	I(D8)	device_current
	956	I(D7)	device_current
	957	I(D6)	device_current
	958	I(D5)	device_current
	959	I(D4)	device_current
	960	I(D3)	device_current
	961	I(D2)	device_current
	962	I(D1)	device_current
	963	I(R371)	device_current
	964	I(R370)	device_current
	965	I(R369)	device_current
	966	I(R368)	device_current
	967	I(R367)	device_current
	968	I(R366)	device_current
	969	I(R365)	device_current
	970	I(R353)	device_current
	971	I(R352)	device_current
	972	I(R351)	device_current
	973	I(R350)	device_current
	974	I(R349)	device_current
	975	I(R348)	device_current
	976	I(R347)	device_current
	977	I(R346)	device_current
	978	I(R345)	device_current
	979	I(R344)	device_current
	980	I(R343)	device_current
	981	I(R342)	device_current
	982	I(R341)	device_current
	983	I(R340)	device_current
	984	I(R339)	device_current
	985	I(R338)	device_current
	986	I(R337)	device_current
	987	I(R336)	device_current
	988	I(R335)	device_current
	989	I(R334)	device_current
	990	I(R333)	device_current
	991	I(R332)	device_current
	992	I(R331)	device_current
	993	I(R330)	device_current
	994	I(R329)	device_current
	995	I(R328)	device_current
	996	I(R327)	device_current
	997	I(R326)	device_current
	998	I(R325)	device_current
	999	I(R324)	device_current
	1000	I(R323)	device_current
	1001	I(R322)	device_current
	1002	I(R321)	device_current